----- GAMESS execution script 'rungms' -----
This job is running on host chemcompute-node-0.novalocal
under operating system Linux at Sun Nov 14 22:54:56 UTC 2021
SLURM has assigned the following compute nodes to this run:
chemcompute-node-0
Available scratch disk space (Kbyte units) at beginning of the job is
Filesystem     1K-blocks     Used Available Use% Mounted on
/dev/sda1       62903276 16877148  46026128  27% /
GAMESS temporary binary files will be written to /scratch/306565
GAMESS supplementary output files will be written to /data/slurm/342576
Copying input file 342576.inp to your run's scratch directory...
The generated host list is
chemcompute-node-0.novalocal

 Distributed Data Interface kickoff program.
 Initiating 1 compute processes on 1 nodes to run the following command:
 /data/gamess-2019R1-ddi/gamess.00.x 342576 

          ******************************************************
          *         GAMESS VERSION = 30 JUN 2019 (R1)          *
          *             FROM IOWA STATE UNIVERSITY             *
          * M.W.SCHMIDT, K.K.BALDRIDGE, J.A.BOATZ, S.T.ELBERT, *
          *   M.S.GORDON, J.H.JENSEN, S.KOSEKI, N.MATSUNAGA,   *
          *          K.A.NGUYEN, S.J.SU, T.L.WINDUS,           *
          *       TOGETHER WITH M.DUPUIS, J.A.MONTGOMERY       *
          *         J.COMPUT.CHEM.  14, 1347-1363(1993)        *
          **************** 64 BIT LINUX VERSION ****************

  SINCE 1993, STUDENTS AND POSTDOCS WORKING AT IOWA STATE UNIVERSITY
  AND ALSO IN THEIR VARIOUS JOBS AFTER LEAVING ISU HAVE MADE IMPORTANT
  CONTRIBUTIONS TO THE CODE:
     IVANA ADAMOVIC, CHRISTINE AIKENS, YURI ALEXEEV, POOJA ARORA,
     ANDREY ASADCHEV, ROB BELL, PRADIPTA BANDYOPADHYAY, JONATHAN BENTZ,
     COLLEEN BERTONI, BRETT BODE, KURT BRORSEN, CALEB CARLIN, GALINA CHABAN,
     WEI CHEN, CHEOL HO CHOI, PAUL DAY, ALBERT DEFUSCO, NUWAN DESILVA,
     TIM DUDLEY, DMITRI FEDOROV, ALEX FINDLATER, GRAHAM FLETCHER, 
     MARK FREITAG, KURT GLAESEMANN, ANASTASIA GUNINA,
     DAN KEMP, GRANT MERRILL, NORIYUKI MINEZAWA, JONATHAN MULLIN,
     TAKESHI NAGATA, SEAN NEDD, HEATHER NETZLOFF, BOSILJKA NJEGIC, RYAN OLSON,
     MIKE PAK, BUU PHAM,
     SPENCER PRUITT, LUKE ROSKOP, JIM SHOEMAKER, LYUDMILA SLIPCHENKO,
     TONY SMITH, SAROM SOK LEANG, JIE SONG, TETSUYA TAKETSUGU, SIMON WEBB,
     PENG XU, SOOHAENG YOO, FEDERICO ZAHARIEV

  ADDITIONAL CODE HAS BEEN PROVIDED BY COLLABORATORS IN OTHER GROUPS:
     IOWA STATE UNIVERSITY:
          JOE IVANIC, AARON WEST, LAIMUTIS BYTAUTAS, KLAUS RUEDENBERG
     UNIVERSITY OF TOKYO: KIMIHIKO HIRAO, TAKAHITO NAKAJIMA,
          TAKAO TSUNEDA, MUNEAKI KAMIYA, SUSUMU YANAGISAWA,
          KIYOSHI YAGI, MAHITO CHIBA, SEIKEN TOKURA, NAOAKI KAWAKAMI
     UNIVERSITY OF AARHUS: FRANK JENSEN
     UNIVERSITY OF IOWA: VISVALDAS KAIRYS, HUI LI
     NATIONAL INST. OF STANDARDS AND TECHNOLOGY: WALT STEVENS, DAVID GARMER
     UNIVERSITY OF PISA: BENEDETTA MENNUCCI, JACOPO TOMASI
     UNIVERSITY OF MEMPHIS: HENRY KURTZ, PRAKASHAN KORAMBATH
     UNIVERSITY OF ALBERTA: TOBY ZENG, MARIUSZ KLOBUKOWSKI
     UNIVERSITY OF NEW ENGLAND: MARK SPACKMAN
     MIE UNIVERSITY: HIROAKI UMEDA
     NAT. INST. OF ADVANCED INDUSTRIAL SCIENCE AND TECHNOLOGY: KAZUO KITAURA
     MICHIGAN STATE UNIVERSITY:
          KAROL KOWALSKI, MARTA WLOCH, JEFFREY GOUR, JESSE LUTZ,
          WEI LI, JUN SHEN, J. EMILIANO DEUSTUA, PIOTR PIECUCH
     UNIVERSITY OF MINNESOTA:
          YINAN SHU
     UNIVERSITY OF SILESIA: MONIKA MUSIAL, STANISLAW KUCHARSKI
     FACULTES UNIVERSITAIRES NOTRE-DAME DE LA PAIX:
          OLIVIER QUINET, BENOIT CHAMPAGNE
     UNIVERSITY OF CALIFORNIA - SANTA BARBARA: BERNARD KIRTMAN
     INSTITUTE FOR MOLECULAR SCIENCE:
          KAZUYA ISHIMURA, MICHIO KATOUDA, AND SHIGERU NAGASE
     UNIVERSITY OF NOTRE DAME: ANNA POMOGAEVA, DAN CHIPMAN
     KYUSHU UNIVERSITY:
          HARUYUKI NAKANO,
          FENG LONG GU, JACEK KORCHOWIEC, MARCIN MAKOWSKI, AND YURIKO AOKI,
          HIROTOSHI MORI AND EISAKU MIYOSHI
     PENNSYLVANIA STATE UNIVERSITY:
          TZVETELIN IORDANOV, CHET SWALINA, JONATHAN SKONE,
          SHARON HAMMES-SCHIFFER
     WASEDA UNIVERSITY:
          MASATO KOBAYASHI, TOMOKO AKAMA, TSUGUKI TOUMA,
          TAKESHI YOSHIKAWA, YASUHIRO IKABATA, JUNJI SEINO,
          YUYA NAKAJIMA, HIROMI NAKAI
     NANJING UNIVERSITY: SHUHUA LI
     UNIVERSITY OF NEBRASKA:
          PEIFENG SU, DEJUN SI, NANDUN THELLAMUREGE, YALI WANG, HUI LI
     UNIVERSITY OF ZURICH: ROBERTO PEVERATI, KIM BALDRIDGE
     N. COPERNICUS UNIVERSITY AND JACKSON STATE UNIVERSITY:
          MARIA BARYSZ
     UNIVERSITY OF COPENHAGEN: Jimmy Kromann, CASPER STEINMANN
     TOKYO INSTITUTE OF TECHNOLOGY: HIROYA NAKATA
     NAGOYA UNIVERSITY: YOSHIO NISHIMOTO, STEPHAN IRLE
     MOSCOW STATE UNIVERSITY: VLADIMIR MIRONOV
     A.N.NESMEYANOV INSTITUTE OF ORGANOELEMENT COMPOUNDS OF RUSSIAN ACADEMY OF SCIENCES:
          IGOR S. GERASIMOV

 EXECUTION OF GAMESS BEGUN Sun Nov 14 22:54:57 2021

            ECHO OF THE FIRST FEW INPUT CARDS -
 INPUT CARD>!File created by the GAMESS Input Deck Generator Plugin for Avogadro            
 INPUT CARD> $BASIS GBASIS=STO NGAUSS=3 $END                                                
 INPUT CARD> $CONTRL SCFTYP=RHF RUNTYP=OPTIMIZE NZVAR=1 mult=1  ICHARG=0 $END               
 INPUT CARD> $STATPT hssend=.t. OPTTOL=0.0005 NSTEP=50 $END                                 
 INPUT CARD> $STATPT HESS=calc ihrep=5 $END                                                 
 INPUT CARD> $FORCE nvib=2 $END                                                             
 INPUT CARD> $ZMAT DLC=.t. auto=.t. nonvdw(1)=6,14,9,15 $END                                
 INPUT CARD> $ZMAT IFZMAT(1)=1,6,14,1,9,15 fvalue(1)=1.50,1.50 $END                         
 INPUT CARD>                                                                                
 INPUT CARD> $DATA                                                                          
 INPUT CARD>Title                                                                           
 INPUT CARD>C1                                                                              
 INPUT CARD>C     6.0    -0.90993     2.03468    -0.02572                                   
 INPUT CARD>C     6.0     0.27651     1.09372     0.13708                                   
 INPUT CARD>C     6.0    -2.10432     1.07966     0.03934                                   
 INPUT CARD>H     1.0    -0.86318     2.46409    -1.05427                                   
 INPUT CARD>H     1.0    -0.95025     2.87253     0.70201                                   
 INPUT CARD>C     6.0    -1.57616    -0.12665    -0.71373                                   
 INPUT CARD>H     1.0    -3.01944     1.52579    -0.40356                                   
 INPUT CARD>H     1.0    -2.29876     0.80470     1.09847                                   
 INPUT CARD>C     6.0    -0.15843    -0.03124    -0.73711                                   
 INPUT CARD>H     1.0     0.30392     0.73657     1.19078                                   
 INPUT CARD>H     1.0     1.25555     1.53800    -0.13972                                   
 INPUT CARD>H     1.0    -2.10210    -0.66537    -1.52060                                   
 INPUT CARD>H     1.0     0.47106    -0.57650    -1.43026                                   
 INPUT CARD>B     5.0    -1.67127    -1.78454     0.53829                                   
 INPUT CARD>H     1.0    -0.44554    -1.61160     0.46959                                   
 INPUT CARD>H     1.0    -2.17446    -1.59428     1.59229                                   
 INPUT CARD>H     1.0    -2.10166    -2.70851    -0.06557                                   
 INPUT CARD> $END                                                                           
    1000000 WORDS OF MEMORY AVAILABLE

     BASIS OPTIONS
     -------------
     GBASIS=STO          IGAUSS=       3      POLAR=NONE    
     NDFUNC=       0     NFFUNC=       0     DIFFSP=       F
     NPFUNC=       0      DIFFS=       F     BASNAM=        


     RUN TITLE
     ---------
 Title                                                                           

 THE POINT GROUP OF THE MOLECULE IS C1      
 THE ORDER OF THE PRINCIPAL AXIS IS     0

 ATOM      ATOMIC                      COORDINATES (BOHR)
           CHARGE         X                   Y                   Z
 C           6.0    -1.7195183680        3.8449876727       -0.0486037524
 C           6.0     0.5225281329        2.0668311073        0.2590436384
 C           6.0    -3.9765881905        2.0402615599        0.0743418204
 H           1.0    -1.6311736781        4.6564549091       -1.9922814171
 H           1.0    -1.7957121198        5.4282945915        1.3266065406
 C           6.0    -2.9785105128       -0.2393337963       -1.3487541292
 H           1.0    -5.7059142364        2.8833250148       -0.7626178196
 H           1.0    -4.3440265115        1.5206625023        2.0758073057
 C           6.0    -0.2993892882       -0.0590350399       -1.3929359228
 H           1.0     0.5743255222        1.3919154708        2.2502479117
 H           1.0     2.3726454639        2.9063985691       -0.2640325150
 H           1.0    -3.9723929988       -1.2573669805       -2.8735173369
 H           1.0     0.8901743238       -1.0894270319       -2.7027994912
 B           5.0    -3.1582423515       -3.3722916141        1.0172206019
 H           1.0    -0.8419485166       -3.0454824018        0.8873964266
 H           1.0    -4.1091335713       -3.0127523477        3.0089917930
 H           1.0    -3.9715615194       -5.1183417350       -0.1239093330

          INTERNUCLEAR DISTANCES (ANGS.)
          ------------------------------

                1 C          2 C          3 C          4 H          5 H     

   1 C       0.0000000    1.5230067 *  1.5306415 *  1.1155687 *  1.1104996 *
   2 C       1.5230067 *  0.0000000    2.3828769 *  2.1438568 *  2.2334393 *
   3 C       1.5306415 *  2.3828769 *  0.0000000    2.1570947 *  2.2327991 *
   4 H       1.1155687 *  2.1438568 *  2.1570947 *  0.0000000    1.8052490 *
   5 H       1.1104996 *  2.2334393 *  2.2327991 *  1.8052490 *  0.0000000  
   6 C       2.3640151 *  2.3760401 *  1.5169875 *  2.7085497 *  3.3750798  
   7 H       2.2026721 *  3.3678276    1.1102419 *  2.4399360 *  2.7050954 *
   8 H       2.1692171 *  2.7640222 *  1.1113803 *  3.0738827    2.5003161 *
   9 C       2.3105959 *  1.4896026 *  2.3713838 *  2.6122662 *  3.3361543  
  10 H       2.1536930 *  1.1129201 *  2.6913091 *  3.0637717    2.5247106 *
  11 H       2.2246327 *  1.1101902 *  3.3957127    2.4865762 *  2.7120165 *
  12 H       3.3085050    3.3911777    2.3406297 *  3.3979268    4.3339924  
  13 H       3.2707991    2.2987038 *  3.3963469    3.3416691    4.2968018  
  14 B       3.9349952    3.4984564    2.9394090 *  4.6086998    4.7153977  
  15 H       3.7089551    2.8196942 *  3.1905402    4.3712494    4.5184260  
  16 H       4.1696934    3.9179375    3.0929805    5.0193727    4.7163206  
  17 H       4.8907729    4.4892886    3.7896233    5.4099123    5.7500375  

                6 C          7 H          8 H          9 C         10 H     

   1 C       2.3640151 *  2.2026721 *  2.1692171 *  2.3105959 *  2.1536930 *
   2 C       2.3760401 *  3.3678276    2.7640222 *  1.4896026 *  1.1129201 *
   3 C       1.5169875 *  1.1102419 *  1.1113803 *  2.3713838 *  2.6913091 *
   4 H       2.7085497 *  2.4399360 *  3.0738827    2.6122662 *  3.0637717  
   5 H       3.3750798    2.7050954 *  2.5003161 *  3.3361543    2.5247106 *
   6 C       0.0000000    2.2158115 *  2.1618586 *  1.4211291 *  2.8119402 *
   7 H       2.2158115 *  0.0000000    1.8153359 *  3.2742902    3.7695504  
   8 H       2.1618586 *  1.8153359 *  0.0000000    2.9409458 *  2.6052075 *
   9 C       1.4211291 *  3.2742902    2.9409458 *  0.0000000    2.1260432 *
  10 H       2.8119402 *  3.7695504    2.6052075 *  2.1260432 *  0.0000000  
  11 H       3.3345357    4.2831414    3.8345747    2.1951602 *  1.8215707 *
  12 H       1.1035721 *  2.6249711 *  3.0098685    2.1894818 *  3.8866373  
  13 H       2.2151501 *  4.2020622    3.9967601    1.0835234 *  2.9363139 *
  14 B       2.0797113 *  3.6963399    2.7224454 *  2.6437456 *  3.2685034  
  15 H       2.2098924 *  4.1509720    3.1094083    2.0090034 *  2.5682110 *
  16 H       2.7981474 *  3.7989795    2.4524302 *  3.4545007    3.4258487  
  17 H       2.7133490 *  4.3457858    3.7062760    3.3756308    4.3856364  

               11 H         12 H         13 H         14 B         15 H     

   1 C       2.2246327 *  3.3085050    3.2707991    3.9349952    3.7089551  
   2 C       1.1101902 *  3.3911777    2.2987038 *  3.4984564    2.8196942 *
   3 C       3.3957127    2.3406297 *  3.3963469    2.9394090 *  3.1905402  
   4 H       2.4865762 *  3.3979268    3.3416691    4.6086998    4.3712494  
   5 H       2.7120165 *  4.3339924    4.2968018    4.7153977    4.5184260  
   6 C       3.3345357    1.1035721 *  2.2151501 *  2.0797113 *  2.2098924 *
   7 H       4.2831414    2.6249711 *  4.2020622    3.6963399    4.1509720  
   8 H       3.8345747    3.0098685    3.9967601    2.7224454 *  3.1094083  
   9 C       2.1951602 *  2.1894818 *  1.0835234 *  2.6437456 *  2.0090034 *
  10 H       1.8215707 *  3.8866373    2.9363139 *  3.2685034    2.5682110 *
  11 H       0.0000000    4.2468203    2.5984665 *  4.4794246    3.6311081  
  12 H       4.2468203    0.0000000    2.5762786 *  2.3826842 *  2.7568820 *
  13 H       2.5984665 *  2.5762786 *  0.0000000    3.1502583    2.3496846 *
  14 B       4.4794246    2.3826842 *  3.1502583    0.0000000    1.2397750 *
  15 H       3.6311081    2.7568820 *  2.3496846 *  1.2397750 *  0.0000000  
  16 H       4.9574192    3.2493375    4.1437255    1.1833491 *  2.0615333 *
  17 H       5.4137976    2.5082930 *  3.6092567    1.1847375 *  2.0572655 *

               16 H         17 H     

   1 C       4.1696934    4.8907729  
   2 C       3.9179375    4.4892886  
   3 C       3.0929805    3.7896233  
   4 H       5.0193727    5.4099123  
   5 H       4.7163206    5.7500375  
   6 C       2.7981474 *  2.7133490 *
   7 H       3.7989795    4.3457858  
   8 H       2.4524302 *  3.7062760  
   9 C       3.4545007    3.3756308  
  10 H       3.4258487    4.3856364  
  11 H       4.9574192    5.4137976  
  12 H       3.2493375    2.5082930 *
  13 H       4.1437255    3.6092567  
  14 B       1.1833491 *  1.1847375 *
  15 H       2.0615333 *  2.0572655 *
  16 H       0.0000000    1.9988267 *
  17 H       1.9988267 *  0.0000000  

  * ... LESS THAN  3.000


     ATOMIC BASIS SET
     ----------------
 THE CONTRACTED PRIMITIVE FUNCTIONS HAVE BEEN UNNORMALIZED
 THE CONTRACTED BASIS FUNCTIONS ARE NOW NORMALIZED TO UNITY

  SHELL TYPE  PRIMITIVE        EXPONENT          CONTRACTION COEFFICIENT(S)

 C         

      1   S       1            71.6168373    0.154328967295
      1   S       2            13.0450963    0.535328142282
      1   S       3             3.5305122    0.444634542185

      2   L       4             2.9412494   -0.099967229187    0.155916274999
      2   L       5             0.6834831    0.399512826089    0.607683718598
      2   L       6             0.2222899    0.700115468880    0.391957393099

 C         

      3   S       7            71.6168373    0.154328967295
      3   S       8            13.0450963    0.535328142282
      3   S       9             3.5305122    0.444634542185

      4   L      10             2.9412494   -0.099967229187    0.155916274999
      4   L      11             0.6834831    0.399512826089    0.607683718598
      4   L      12             0.2222899    0.700115468880    0.391957393099

 C         

      5   S      13            71.6168373    0.154328967295
      5   S      14            13.0450963    0.535328142282
      5   S      15             3.5305122    0.444634542185

      6   L      16             2.9412494   -0.099967229187    0.155916274999
      6   L      17             0.6834831    0.399512826089    0.607683718598
      6   L      18             0.2222899    0.700115468880    0.391957393099

 H         

      7   S      19             3.4252509    0.154328967295
      7   S      20             0.6239137    0.535328142282
      7   S      21             0.1688554    0.444634542185

 H         

      8   S      22             3.4252509    0.154328967295
      8   S      23             0.6239137    0.535328142282
      8   S      24             0.1688554    0.444634542185

 C         

      9   S      25            71.6168373    0.154328967295
      9   S      26            13.0450963    0.535328142282
      9   S      27             3.5305122    0.444634542185

     10   L      28             2.9412494   -0.099967229187    0.155916274999
     10   L      29             0.6834831    0.399512826089    0.607683718598
     10   L      30             0.2222899    0.700115468880    0.391957393099

 H         

     11   S      31             3.4252509    0.154328967295
     11   S      32             0.6239137    0.535328142282
     11   S      33             0.1688554    0.444634542185

 H         

     12   S      34             3.4252509    0.154328967295
     12   S      35             0.6239137    0.535328142282
     12   S      36             0.1688554    0.444634542185

 C         

     13   S      37            71.6168373    0.154328967295
     13   S      38            13.0450963    0.535328142282
     13   S      39             3.5305122    0.444634542185

     14   L      40             2.9412494   -0.099967229187    0.155916274999
     14   L      41             0.6834831    0.399512826089    0.607683718598
     14   L      42             0.2222899    0.700115468880    0.391957393099

 H         

     15   S      43             3.4252509    0.154328967295
     15   S      44             0.6239137    0.535328142282
     15   S      45             0.1688554    0.444634542185

 H         

     16   S      46             3.4252509    0.154328967295
     16   S      47             0.6239137    0.535328142282
     16   S      48             0.1688554    0.444634542185

 H         

     17   S      49             3.4252509    0.154328967295
     17   S      50             0.6239137    0.535328142282
     17   S      51             0.1688554    0.444634542185

 H         

     18   S      52             3.4252509    0.154328967295
     18   S      53             0.6239137    0.535328142282
     18   S      54             0.1688554    0.444634542185

 B         

     19   S      55            48.7911132    0.154328967295
     19   S      56             8.8873622    0.535328142282
     19   S      57             2.4052670    0.444634542185

     20   L      58             2.2369561   -0.099967229187    0.155916274999
     20   L      59             0.5198205    0.399512826089    0.607683718598
     20   L      60             0.1690618    0.700115468880    0.391957393099

 H         

     21   S      61             3.4252509    0.154328967295
     21   S      62             0.6239137    0.535328142282
     21   S      63             0.1688554    0.444634542185

 H         

     22   S      64             3.4252509    0.154328967295
     22   S      65             0.6239137    0.535328142282
     22   S      66             0.1688554    0.444634542185

 H         

     23   S      67             3.4252509    0.154328967295
     23   S      68             0.6239137    0.535328142282
     23   S      69             0.1688554    0.444634542185

 TOTAL NUMBER OF BASIS SET SHELLS             =   23
 NUMBER OF CARTESIAN GAUSSIAN BASIS FUNCTIONS =   41
 NUMBER OF ELECTRONS                          =   46
 CHARGE OF MOLECULE                           =    0
 SPIN MULTIPLICITY                            =    1
 NUMBER OF OCCUPIED ORBITALS (ALPHA)          =   23
 NUMBER OF OCCUPIED ORBITALS (BETA )          =   23
 TOTAL NUMBER OF ATOMS                        =   17
 THE NUCLEAR REPULSION ENERGY IS      231.1720232667

     $CONTRL OPTIONS
     ---------------
 SCFTYP=RHF          RUNTYP=OPTIMIZE     EXETYP=RUN     
 MPLEVL=       0     CITYP =NONE         CCTYP =NONE         VBTYP =NONE    
 DFTTYP=NONE         TDDFT =NONE    
 MULT  =       1     ICHARG=       0     NZVAR =       1     COORD =UNIQUE  
 PP    =NONE         RELWFN=NONE         LOCAL =NONE         NUMGRD=       F
 ISPHER=      -1     NOSYM =       0     MAXIT =      30     UNITS =ANGS    
 PLTORB=       F     MOLPLT=       F     AIMPAC=       F     FRIEND=        
 NPRINT=       7     IREST =       0     GEOM  =INPUT   
 NORMF =       0     NORMP =       0     ITOL  =      20     ICUT  =       9
 INTTYP=BEST         GRDTYP=BEST         QMTTOL= 1.0E-06

     $SYSTEM OPTIONS
     ---------------
  REPLICATED MEMORY=     1000000 WORDS (ON EVERY NODE).
 DISTRIBUTED MEMDDI=           0 MILLION WORDS IN AGGREGATE,
 MEMDDI DISTRIBUTED OVER   1 PROCESSORS IS           0 WORDS/PROCESSOR.
 TOTAL MEMORY REQUESTED ON EACH PROCESSOR=     1000000 WORDS.
 TIMLIM=      525600.00 MINUTES, OR     365.0 DAYS.
 PARALL= F  BALTYP=  DLB     KDIAG=    0  COREFL= F
 MXSEQ2=     300 MXSEQ3=     150  mem10=         0

          ----------------
          PROPERTIES INPUT
          ----------------

     MOMENTS            FIELD           POTENTIAL          DENSITY
 IEMOM =       1   IEFLD =       0   IEPOT =       0   IEDEN =       0
 WHERE =COMASS     WHERE =NUCLEI     WHERE =NUCLEI     WHERE =NUCLEI  
 OUTPUT=BOTH       OUTPUT=BOTH       OUTPUT=BOTH       OUTPUT=BOTH    
 IEMINT=       0   IEFINT=       0                     IEDINT=       0
                                                       MORB  =       0
          EXTRAPOLATION IN EFFECT
          SOSCF IN EFFECT
 ORBITAL PRINTING OPTION: NPREO=     1    41     2     1

     -------------------------------
     INTEGRAL TRANSFORMATION OPTIONS
     -------------------------------
     NWORD  =            0
     CUTOFF = 1.0E-09     MPTRAN =       0
     DIRTRF =       F     AOINTS =DUP     

          ----------------------
          INTEGRAL INPUT OPTIONS
          ----------------------
 NOPK  =       1 NORDER=       0 SCHWRZ=       T


 -----------------------------------------------
  STATISTICS ON AUTOMATIC COORDINATE GENERATION 
 -----------------------------------------------
  NUMBER OF USER SPECIFIED BONDS                             2
  NUMBER OF BONDS                                           18
  NUMBER OF ANGLES                                          37
  NUMBER OF TORSIONS                                        60
  NUMBER OF EXTRA COORD.                                     0
  NUMBER OF EXTRA COORD. FOR CONSTRAINTS                     0
  NUMBER OF CONSTRAINED COORD.                               2

  TOTAL NUMBER OF PRIMITIVES                               115
 -----------------------------------------------

   --- ENCODED Z MATRIX ---
 COORD  TYPE   I   J   K   L   M   N
    1      1    6  14
    2      1    9  15
    3      1    1   5
    4      1    1   2
    5      1    1   3
    6      1    1   4
    7      1    2  10
    8      1    2   9
    9      1    2  11
   10      1    3   8
   11      1    3   7
   12      1    3   6
   13      1    6  12
   14      1    6   9
   15      1    9  13
   16      1   14  16
   17      1   14  15
   18      1   14  17
   19      2    1   2  11
   20      2    1   3   7
   21      2    1   3   8
   22      2    1   2   9
   23      2    1   3   6
   24      2    1   2  10
   25      2    2   9   6
   26      2    2   1   5
   27      2    2   1   4
   28      2    2   9  13
   29      2    2   1   3
   30      2    2   9  15
   31      2    3   6  14
   32      2    3   6   9
   33      2    3   6  12
   34      2    3   1   4
   35      2    3   1   5
   36      2    4   1   5
   37      2    6  14  16
   38      2    6   9  13
   39      2    6   9  15
   40      2    6  14  15
   41      2    6   3   7
   42      2    6   3   8
   43      2    6  14  17
   44      2    7   3   8
   45      2    9   2  11
   46      2    9   6  14
   47      2    9   2  10
   48      2    9   6  12
   49      2    9  15  14
   50      2   10   2  11
   51      2   12   6  14
   52      2   13   9  15
   53      2   15  14  17
   54      2   15  14  16
   55      2   16  14  17
   56      3    1   2   9  15
   57      3    1   2   9   6
   58      3    1   3   6  14
   59      3    1   3   6   9
   60      3    1   3   6  12
   61      3    1   2   9  13
   62      3    2   9   6  14
   63      3    2   9   6  12
   64      3    2   9   6   3
   65      3    2   9  15  14
   66      3    2   1   3   7
   67      3    2   1   3   6
   68      3    2   1   3   8
   69      3    3   6   9  15
   70      3    3   6   9  13
   71      3    3   6  14  17
   72      3    3   6  14  15
   73      3    3   6  14  16
   74      3    3   1   2   9
   75      3    3   1   2  10
   76      3    3   1   2  11
   77      3    4   1   2  11
   78      3    4   1   3   7
   79      3    4   1   2  10
   80      3    4   1   2   9
   81      3    4   1   3   8
   82      3    4   1   3   6
   83      3    5   1   3   8
   84      3    5   1   2  10
   85      3    5   1   2   9
   86      3    5   1   3   7
   87      3    5   1   2  11
   88      3    5   1   3   6
   89      3    6   9   2  11
   90      3    6   9   2  10
   91      3    6  14  15   9
   92      3    6   9  15  14
   93      3    7   3   6   9
   94      3    7   3   6  14
   95      3    7   3   6  12
   96      3    8   3   6  12
   97      3    8   3   6   9
   98      3    8   3   6  14
   99      3    9  15  14  17
  100      3    9  15  14  16
  101      3    9   6  14  17
  102      3    9   6  14  15
  103      3    9   6  14  16
  104      3   10   2   9  15
  105      3   10   2   9  13
  106      3   11   2   9  15
  107      3   11   2   9  13
  108      3   12   6  14  17
  109      3   12   6  14  15
  110      3   12   6   9  15
  111      3   12   6   9  13
  112      3   12   6  14  16
  113      3   13   9  15  14
  114      3   13   9   6  14
  115      3   14   6   9  15

          INDEP./SYM. INTERNAL COORDINATES
          --------------------------------
 CRD  1=   1.0000 (  1)
 CRD  2=   1.0000 (  2)
 CRD  3=  -0.1355 (  3) -0.2909 (  8)  0.1603 ( 19)  0.1831 ( 20) -0.2545 ( 22)
          -0.3542 ( 23) -0.1016 ( 26) -0.1302 ( 27)  0.3302 ( 29)  0.1577 ( 32)
          -0.1184 ( 33) -0.1394 ( 35)  0.1330 ( 36)  0.1175 ( 40)  0.1914 ( 42)
          -0.1106 ( 43) -0.1310 ( 44) -0.1153 ( 46)  0.1341 ( 47)  0.1205 ( 55)
           0.1217 ( 65) -0.1152 ( 72)  0.1041 ( 74)  0.1165 ( 80)  0.1083 ( 85)
 CRD  4=   0.2006 (  5) -0.3750 (  8)  0.4224 ( 12)  0.1170 ( 21)  0.2085 ( 22)
          -0.1579 ( 23) -0.1467 ( 28)  0.1626 ( 33)  0.1444 ( 35) -0.1076 ( 37)
           0.1044 ( 38)  0.2274 ( 41) -0.2103 ( 45) -0.1327 ( 48) -0.1190 ( 64)
           0.1116 ( 65) -0.1083 ( 69)  0.1286 ( 71)  0.1313 ( 73) -0.1023 ( 76)
           0.1101 ( 82)  0.1408 ( 88)  0.1229 (101)  0.1256 (103)
 CRD  5=   0.4406 (  5)  0.1367 (  8)  0.1758 (  9)  0.1241 ( 11)  0.1143 ( 14)
           0.1124 ( 16) -0.1568 ( 22)  0.1005 ( 24)  0.1976 ( 25)  0.1145 ( 29)
          -0.1092 ( 39) -0.1126 ( 40)  0.2527 ( 43)  0.1423 ( 45)  0.1249 ( 49)
           0.1168 ( 52) -0.1937 ( 55) -0.1349 ( 59)  0.1194 ( 62)  0.1508 ( 65)
          -0.1232 ( 74) -0.1426 ( 80) -0.1613 ( 97)  0.2549 ( 99)  0.1105 (104)
          -0.1058 (110)  0.1124 (114)
 CRD  6=   0.1597 (  3)  0.7052 (  4)  0.1422 (  8)  0.1520 (  9)  0.2009 ( 12)
           0.1114 ( 14)  0.1403 ( 15)  0.1635 ( 19)  0.1925 ( 26)  0.1125 ( 27)
           0.1458 ( 81)  0.1205 ( 82) -0.1214 ( 86)  0.1077 ( 90)  0.1080 (105)
 CRD  7=  -0.1528 (  3) -0.5071 (  5) -0.1103 (  6)  0.1827 ( 12)  0.1563 ( 17)
          -0.1615 ( 20)  0.2144 ( 29) -0.1083 ( 34) -0.2123 ( 35)  0.1253 ( 36)
           0.1754 ( 41)  0.2229 ( 43)  0.1071 ( 52) -0.1368 ( 55)  0.1535 ( 56)
          -0.1091 ( 85) -0.1085 ( 86) -0.1795 ( 93) -0.1287 ( 94)  0.1057 ( 96)
           0.2074 ( 99)  0.1298 (106)
 CRD  8=   0.1204 (  4) -0.1503 (  5) -0.4595 (  8) -0.1009 ( 11) -0.3241 ( 12)
          -0.1629 ( 13) -0.1034 ( 14) -0.1997 ( 15)  0.1536 ( 16)  0.1007 ( 24)
           0.1103 ( 26) -0.1884 ( 28) -0.1061 ( 29)  0.2754 ( 37) -0.1063 ( 40)
          -0.1005 ( 42)  0.1004 ( 46) -0.1150 ( 47) -0.1505 ( 55)  0.1045 ( 58)
           0.1296 ( 79) -0.1203 ( 87) -0.2467 (100)
 CRD  9=  -0.1055 (  8)  0.1065 ( 10)  0.1462 ( 12) -0.1270 ( 14) -0.1270 ( 19)
           0.1150 ( 20) -0.1808 ( 21)  0.2005 ( 24)  0.2447 ( 26) -0.2440 ( 27)
           0.2366 ( 34) -0.1804 ( 35) -0.1355 ( 37) -0.1309 ( 41)  0.2247 ( 42)
          -0.1974 ( 47) -0.1196 ( 51)  0.1291 ( 63)  0.1012 ( 64)  0.1449 ( 66)
           0.2188 ( 68)  0.1048 ( 73)  0.1734 ( 75) -0.1222 ( 80) -0.1588 ( 82)
          -0.1285 ( 88)  0.1464 ( 98)  0.1661 (100)  0.1051 (103)  0.1045 (111)
 CRD 10=   0.1382 (  5) -0.1072 (  8)  0.1160 ( 13)  0.4651 ( 14)  0.2339 ( 15)
           0.1515 ( 17)  0.1065 ( 20) -0.1091 ( 25) -0.2351 ( 28) -0.1075 ( 33)
           0.1406 ( 34)  0.3493 ( 38)  0.1378 ( 48)  0.1172 ( 52)  0.1275 ( 53)
          -0.1335 ( 65) -0.1239 ( 71)  0.1215 ( 75)  0.1086 ( 76)  0.1012 ( 93)
          -0.1408 (101)  0.1339 (109) -0.3398 (113)
 CRD 11=  -0.1880 (  7)  0.1521 ( 11)  0.1285 ( 12)  0.1420 ( 15)  0.2100 ( 16)
           0.1347 ( 17) -0.1629 ( 18) -0.1157 ( 19) -0.1037 ( 27)  0.1217 ( 28)
           0.2537 ( 37)  0.1360 ( 41) -0.3325 ( 43)  0.1115 ( 45) -0.1421 ( 47)
          -0.1071 ( 48)  0.1011 ( 57)  0.1472 ( 67) -0.1046 ( 72) -0.1026 ( 74)
          -0.1379 ( 80) -0.1149 ( 85)  0.1174 ( 88)  0.1249 ( 89) -0.3531 ( 99)
          -0.2782 (100) -0.1074 (108) -0.1217 (109)
 CRD 12=  -0.2019 ( 10)  0.4691 ( 13) -0.2962 ( 15) -0.1070 ( 18) -0.1727 ( 21)
           0.1636 ( 25) -0.1327 ( 28) -0.1875 ( 32)  0.1077 ( 33) -0.2123 ( 43)
           0.1083 ( 48)  0.1437 ( 55) -0.1589 ( 58) -0.1176 ( 60)  0.1238 ( 63)
           0.1180 ( 65) -0.1047 ( 66)  0.1374 ( 71)  0.1567 ( 72)  0.1155 ( 73)
           0.1050 ( 82)  0.1179 ( 97) -0.1766 ( 99)  0.1023 (105)  0.1051 (110)
 CRD 13=  -0.1539 (  6) -0.1786 (  7) -0.2374 ( 10)  0.1061 ( 11) -0.1449 ( 12)
          -0.2585 ( 13) -0.1656 ( 15) -0.2058 ( 16)  0.2161 ( 18) -0.1054 ( 19)
           0.1003 ( 30)  0.1546 ( 31) -0.1358 ( 33) -0.2572 ( 37) -0.1447 ( 42)
          -0.1391 ( 47) -0.1021 ( 49) -0.1613 ( 62)  0.1377 ( 67)  0.1201 ( 69)
          -0.1387 ( 74)  0.1468 ( 89)  0.1500 ( 90)  0.2174 (100)  0.1208 (109)
 CRD 14=   0.3277 (  3) -0.4875 (  6) -0.1052 ( 10)  0.1473 ( 13)  0.1242 ( 19)
           0.1139 ( 20) -0.1397 ( 21) -0.1314 ( 24) -0.1231 ( 27) -0.1444 ( 34)
           0.1025 ( 35) -0.1969 ( 41)  0.1305 ( 42) -0.2198 ( 45)  0.1377 ( 47)
           0.2360 ( 66)  0.2076 ( 68) -0.2138 ( 75) -0.2515 ( 76)  0.1220 ( 80)
 CRD 15=  -0.4395 (  7)  0.3701 (  9)  0.1139 ( 10) -0.1651 ( 15) -0.1590 ( 16)
          -0.2468 ( 17)  0.1906 ( 19) -0.2162 ( 24)  0.1072 ( 26)  0.1089 ( 34)
          -0.1770 ( 35)  0.1052 ( 56)  0.1489 ( 61) -0.1473 ( 70) -0.1585 ( 80)
          -0.1900 ( 85) -0.1369 ( 89) -0.1572 ( 90) -0.1440 (104) -0.1004 (105)
          -0.1237 (106) -0.1274 (114)
 CRD 16=  -0.1399 (  3) -0.3549 ( 10)  0.3076 ( 11) -0.3585 ( 13)  0.1750 ( 15)
           0.2054 ( 20) -0.2110 ( 21) -0.1304 ( 26) -0.1192 ( 51) -0.1286 ( 60)
           0.1420 ( 63)  0.1259 ( 82)  0.1443 ( 88) -0.1118 ( 89) -0.1142 ( 90)
           0.1605 ( 93)  0.2175 ( 94)  0.1066 ( 96)  0.1713 ( 97)  0.2283 ( 98)
           0.1173 (101)  0.1151 (103)
 CRD 17=  -0.6744 ( 16) -0.5558 ( 18)  0.1195 ( 37)  0.1158 ( 53) -0.2431 ( 55)
          -0.1186 ( 71) -0.1229 (100) -0.1126 (101) -0.1255 (108)
 CRD 18=   0.1162 (  3) -0.1496 ( 10) -0.3846 ( 11) -0.1463 ( 12)  0.1670 ( 14)
           0.3102 ( 15)  0.1145 ( 16) -0.3229 ( 18) -0.1987 ( 53)  0.1187 ( 54)
           0.2561 ( 71)  0.2160 ( 73)  0.2484 (101)  0.2083 (103)  0.2999 (108)
           0.1044 (109)  0.2599 (112)
 CRD 19=  -0.4395 (  7) -0.1244 (  9)  0.2215 ( 10)  0.1459 ( 13) -0.1417 ( 15)
           0.1100 ( 20) -0.1058 ( 21) -0.1025 ( 26)  0.1387 ( 27) -0.1086 ( 34)
          -0.1484 ( 41)  0.1132 ( 42)  0.1279 ( 45) -0.1033 ( 49)  0.1108 ( 51)
          -0.1334 ( 63)  0.1020 ( 66)  0.1024 ( 76)  0.1723 ( 77)  0.2134 ( 78)
           0.1686 ( 81)  0.1345 ( 83)  0.1793 ( 86)  0.1515 ( 87)  0.1393 ( 90)
           0.1343 ( 93)  0.1424 ( 95)  0.1691 ( 96)  0.1610 ( 97)  0.1012 ( 98)
           0.1044 ( 99)
 CRD 20=  -0.3060 (  3) -0.3265 (  6)  0.4085 (  7)  0.5421 (  9)  0.1143 ( 10)
          -0.1146 ( 11) -0.1140 ( 19) -0.1200 ( 36) -0.1251 ( 47)  0.1955 ( 50)
           0.1032 ( 75)  0.1225 ( 78)  0.1110 ( 81)  0.1922 ( 84)  0.1333 ( 89)
 CRD 21=   0.3623 (  3)  0.3973 (  6)  0.2933 (  9) -0.3621 ( 10) -0.3699 ( 11)
          -0.1067 ( 15)  0.1108 ( 20)  0.1498 ( 36)  0.1162 ( 42) -0.1655 ( 44)
           0.1027 ( 68) -0.1010 ( 71)  0.1344 ( 79)  0.1934 ( 83)  0.1106 ( 93)
           0.1067 ( 94)  0.1110 ( 95) -0.1031 (108)
 CRD 22=  -0.4441 (  3) -0.2530 (  6) -0.1630 (  7) -0.2418 (  9) -0.4068 ( 10)
          -0.3981 ( 11) -0.1541 ( 36) -0.1867 ( 44) -0.1415 ( 79)  0.1479 ( 81)
          -0.1251 ( 86)
 CRD 23=  -0.1329 (  6) -0.1230 (  7)  0.1968 ( 10) -0.2085 ( 11) -0.1357 ( 13)
           0.1992 ( 15) -0.3852 ( 17)  0.1726 ( 18) -0.1085 ( 34) -0.1339 ( 39)
           0.1874 ( 49) -0.1240 ( 54)  0.1558 ( 55)  0.1223 ( 63) -0.1407 ( 73)
           0.1017 ( 76)  0.1850 ( 77)  0.1801 ( 79)  0.1058 ( 80)  0.1054 ( 81)
           0.1760 ( 84)  0.1017 ( 85)  0.1808 ( 87) -0.1090 ( 95) -0.1096 ( 96)
          -0.1558 (103)  0.1262 (104) -0.1942 (112)
 CRD 24=  -0.1089 (  6) -0.2258 ( 10)  0.1962 ( 11) -0.1254 ( 14) -0.4384 ( 17)
          -0.1246 ( 19) -0.1032 ( 28)  0.1048 ( 56)  0.1130 ( 59)  0.1208 ( 60)
          -0.1330 ( 63) -0.1277 ( 64) -0.1232 ( 73) -0.1304 ( 78) -0.1169 ( 81)
          -0.1344 ( 83) -0.1479 ( 86) -0.1124 ( 88)  0.1795 ( 89)  0.1379 ( 90)
           0.1612 ( 93)  0.1051 ( 94)  0.1691 ( 95)  0.1414 ( 96)  0.1336 ( 97)
          -0.1076 (103)  0.1600 (104)  0.2016 (106)  0.1054 (107) -0.1270 (112)
          -0.1134 (113)
 CRD 25=   0.2603 (  3) -0.3419 (  6) -0.1617 (  7)  0.1238 (  9) -0.1067 ( 10)
           0.2148 ( 17) -0.1747 ( 66) -0.1513 ( 68)  0.1134 ( 74)  0.1591 ( 75)
           0.1789 ( 76)  0.2155 ( 77) -0.1920 ( 78)  0.1957 ( 79)  0.1500 ( 80)
          -0.1686 ( 81) -0.1161 ( 82) -0.1851 ( 83)  0.2109 ( 84)  0.1653 ( 85)
          -0.2085 ( 86)  0.2308 ( 87) -0.1326 ( 88)
 CRD 26=   0.1767 (  7) -0.1276 (  8) -0.1417 (  9) -0.1141 ( 12)  0.1855 ( 13)
           0.1191 ( 14)  0.1536 ( 15) -0.2529 ( 16)  0.1030 ( 17)  0.4294 ( 18)
           0.1466 ( 28)  0.1459 ( 37) -0.1459 ( 38) -0.1168 ( 52)  0.1698 ( 61)
           0.1241 ( 65) -0.2054 ( 70)  0.1100 ( 72)  0.1039 ( 92) -0.2330 (100)
           0.1805 (105)  0.1748 (107) -0.1330 (111)  0.2289 (113) -0.1735 (114)
 CRD 27=   0.1661 (  7) -0.1606 (  9) -0.1171 ( 13)  0.1840 ( 14) -0.3689 ( 15)
           0.2991 ( 16) -0.1846 ( 18)  0.1219 ( 30) -0.1375 ( 51) -0.2186 ( 52)
           0.2133 ( 61) -0.1434 ( 65) -0.2184 ( 70) -0.1236 ( 96)  0.1280 ( 99)
           0.1814 (105)  0.2143 (107)  0.1846 (110) -0.1308 (111) -0.1102 (113)
          -0.2623 (114)
 CRD 28=   0.2164 (  3) -0.1930 (  6)  0.1539 (  7)  0.1405 (  8)  0.2083 ( 10)
          -0.2098 ( 11) -0.4740 ( 13) -0.2268 ( 15) -0.1340 ( 21) -0.1495 ( 28)
          -0.1143 ( 30)  0.1336 ( 38)  0.1107 ( 45) -0.1262 ( 50)  0.1057 ( 65)
          -0.1237 ( 66) -0.1358 ( 69)  0.1043 ( 72) -0.1684 ( 79) -0.1138 ( 80)
          -0.1076 ( 84)  0.1154 ( 96)  0.1451 ( 97) -0.1752 (100) -0.1059 (110)
 CRD 29=  -0.1244 (  3)  0.1372 (  6) -0.1269 (  7)  0.2716 (  9) -0.1397 ( 13)
          -0.1231 ( 14)  0.3095 ( 15)  0.1152 ( 17)  0.1471 ( 24) -0.1621 ( 28)
           0.1384 ( 33)  0.1279 ( 35)  0.1016 ( 38)  0.1199 ( 44) -0.1322 ( 50)
          -0.1408 ( 52) -0.1017 ( 56)  0.1540 ( 61) -0.1404 ( 70) -0.1344 ( 81)
          -0.1524 ( 82)  0.1126 ( 85)  0.1444 ( 90)  0.1241 ( 96)  0.3048 (105)
          -0.1209 (106)  0.1348 (107) -0.1550 (108) -0.1027 (109) -0.1148 (111)
          -0.1121 (112) -0.1574 (113) -0.1415 (114)
 CRD 30=   0.1032 (  5)  0.1526 (  6) -0.1106 (  7)  0.1084 (  9) -0.1506 ( 10)
           0.1916 ( 11) -0.1013 ( 15) -0.1550 ( 20) -0.1789 ( 36) -0.1207 ( 39)
          -0.1311 ( 40)  0.1887 ( 42) -0.1354 ( 43)  0.1112 ( 46)  0.1860 ( 47)
           0.1400 ( 49) -0.1001 ( 63)  0.1559 ( 68) -0.1178 ( 75) -0.1259 ( 79)
           0.2424 ( 81)  0.1425 ( 85) -0.1298 ( 86) -0.1708 ( 88) -0.1108 ( 90)
          -0.1760 ( 93) -0.2360 ( 99)  0.1860 (106)  0.1715 (107)  0.1047 (109)
          -0.1704 (110) -0.2102 (111)  0.1216 (112)
 CRD 31=  -0.1519 (  6)  0.1243 (  7)  0.1041 (  8)  0.1160 ( 10) -0.1093 ( 11)
          -0.1189 ( 14)  0.1602 ( 19)  0.1427 ( 36) -0.2069 ( 37) -0.1024 ( 39)
          -0.1220 ( 40) -0.1321 ( 42) -0.1659 ( 43)  0.1038 ( 46) -0.1146 ( 47)
           0.1209 ( 49)  0.1621 ( 53)  0.1627 ( 54)  0.1172 ( 56) -0.1438 ( 63)
          -0.1495 ( 71)  0.1222 ( 73)  0.1187 ( 79) -0.1547 ( 85)  0.1362 ( 88)
          -0.1418 ( 89)  0.1230 ( 94)  0.1536 ( 95) -0.2387 ( 99)  0.2982 (100)
          -0.1594 (101)  0.1123 (103) -0.1650 (110) -0.1904 (111)  0.1797 (112)
 CRD 32=  -0.1887 (  3) -0.1040 (  4)  0.2907 (  8)  0.1280 ( 11)  0.2652 ( 12)
          -0.2591 ( 14) -0.1571 ( 15)  0.1239 ( 20)  0.1446 ( 21)  0.1222 ( 26)
          -0.1490 ( 28) -0.1318 ( 34)  0.1013 ( 37)  0.2022 ( 38) -0.1376 ( 41)
           0.1637 ( 77)  0.1273 ( 79)  0.1784 ( 80) -0.2541 ( 96) -0.1765 ( 97)
          -0.1490 ( 98) -0.1678 (100)  0.1125 (105)  0.1633 (108)  0.1584 (109)
           0.1358 (112) -0.1079 (113)
 CRD 33=   0.2915 (  4) -0.3261 (  5) -0.1076 (  8)  0.1798 (  9) -0.1109 ( 11)
           0.1356 ( 12)  0.1410 ( 13) -0.1569 ( 15) -0.1087 ( 17) -0.1696 ( 26)
          -0.1736 ( 27)  0.1820 ( 34)  0.1751 ( 35) -0.1229 ( 42)  0.1714 ( 47)
          -0.1246 ( 50) -0.1288 ( 75) -0.2634 ( 79) -0.2105 ( 81)  0.1740 ( 85)
           0.1845 ( 86)  0.1943 ( 87)  0.1517 ( 88)  0.1069 (103)  0.1157 (104)
           0.1004 (106)  0.1256 (112)
 CRD 34=  -0.1602 (  3)  0.1300 (  8)  0.1716 ( 12) -0.1824 ( 13)  0.1147 ( 14)
          -0.1123 ( 15)  0.1029 ( 19) -0.1084 ( 21)  0.1043 ( 24) -0.1226 ( 27)
           0.2010 ( 28) -0.1377 ( 33)  0.1478 ( 35) -0.1817 ( 38) -0.2300 ( 45)
          -0.1334 ( 47)  0.1957 ( 48) -0.1184 ( 54) -0.1875 ( 76) -0.1447 ( 77)
          -0.2127 ( 78)  0.1291 ( 79) -0.1535 ( 82)  0.2065 ( 84)  0.1204 ( 85)
           0.1141 ( 90) -0.1112 ( 95) -0.1408 (103)  0.1585 (104) -0.1142 (107)
           0.1388 (108)  0.1962 (109)  0.1802 (113)
 CRD 35=  -0.1819 (  3)  0.1299 (  4) -0.1104 ( 10) -0.1189 ( 11) -0.1214 ( 13)
           0.3026 ( 14) -0.1958 ( 15) -0.1964 ( 16)  0.2503 ( 17) -0.1023 ( 24)
           0.1468 ( 33) -0.1528 ( 41) -0.1291 ( 42)  0.1868 ( 44) -0.1647 ( 48)
          -0.1118 ( 53)  0.2034 ( 55)  0.1252 ( 60)  0.1593 ( 66) -0.1102 ( 68)
           0.1536 ( 71)  0.1031 ( 77)  0.1230 ( 79)  0.1058 ( 80) -0.2042 ( 81)
          -0.1659 ( 83)  0.1036 ( 86)  0.1038 ( 95)  0.1388 ( 96) -0.1209 ( 99)
           0.1336 (101)  0.1145 (106) -0.1471 (109) -0.1847 (112)
 CRD 36=  -0.1080 (  7) -0.2242 (  8)  0.1886 ( 12) -0.1512 ( 13)  0.1318 ( 15)
           0.2644 ( 16) -0.2435 ( 18) -0.1506 ( 19)  0.1428 ( 20)  0.1267 ( 25)
          -0.1270 ( 32) -0.1542 ( 38) -0.1107 ( 42)  0.1137 ( 47)  0.1123 ( 48)
           0.2325 ( 53) -0.1794 ( 54)  0.1972 ( 65) -0.1064 ( 68)  0.1904 ( 72)
          -0.1602 ( 83) -0.1236 ( 84)  0.1501 ( 89)  0.1402 ( 93) -0.1901 (101)
          -0.1356 (103)  0.1261 (106)  0.1146 (107)  0.1642 (109)  0.2220 (113)
 CRD 37=  -0.1075 (  3)  0.1983 (  5) -0.1029 (  9)  0.1477 ( 16) -0.3934 ( 17)
           0.1902 ( 18) -0.1000 ( 21)  0.1074 ( 40)  0.1530 ( 44) -0.1418 ( 46)
           0.1058 ( 50)  0.1387 ( 53)  0.1462 ( 54) -0.2668 ( 55) -0.1307 ( 58)
          -0.1675 ( 71)  0.2204 ( 73)  0.1003 ( 79) -0.1062 ( 93) -0.2210 ( 94)
          -0.1252 ( 95)  0.1100 ( 97) -0.1437 (101)  0.2442 (103) -0.2323 (108)
           0.1556 (112)
 CRD 38=   0.2218 (  7) -0.2081 ( 10)  0.1228 ( 11)  0.1046 ( 13)  0.1982 ( 16)
          -0.2173 ( 18)  0.1108 ( 19)  0.1172 ( 34)  0.1214 ( 43) -0.1125 ( 48)
          -0.1160 ( 50)  0.1646 ( 53) -0.1998 ( 54) -0.1268 ( 62)  0.1213 ( 65)
           0.1444 ( 66)  0.1252 ( 72)  0.1781 ( 76)  0.1105 ( 78)  0.1602 ( 86)
           0.1504 ( 87) -0.1618 ( 89) -0.1489 ( 91)  0.2184 ( 92) -0.1280 ( 93)
          -0.1019 ( 94)  0.2028 (102) -0.1410 (106) -0.1703 (107) -0.1320 (112)
           0.1413 (113) -0.1102 (114) -0.1255 (115)
 CRD 39=  -0.1391 (  3)  0.3392 (  4)  0.1654 (  5) -0.1251 (  6) -0.1474 (  9)
          -0.1835 ( 14)  0.1304 ( 15) -0.1416 ( 20) -0.1065 ( 24)  0.1599 ( 25)
          -0.1072 ( 27) -0.1537 ( 28) -0.1117 ( 33)  0.2114 ( 36)  0.1475 ( 45)
          -0.1061 ( 56)  0.1188 ( 58)  0.1358 ( 65) -0.1117 ( 73)  0.1164 ( 77)
          -0.1481 ( 78) -0.1563 ( 82)  0.2200 ( 83) -0.1096 ( 85)  0.1449 ( 86)
           0.1367 ( 88) -0.1712 ( 90)  0.1030 ( 98) -0.2491 (104) -0.1221 (105)
           0.1173 (107)  0.1172 (108)
 CRD 40=   0.1551 (  4) -0.1548 (  5) -0.1451 (  7)  0.2849 (  8) -0.1197 (  9)
           0.1415 ( 10) -0.2775 ( 12)  0.1112 ( 13) -0.1651 ( 22) -0.1230 ( 26)
          -0.1150 ( 28)  0.1161 ( 35)  0.1463 ( 38) -0.1302 ( 44) -0.1360 ( 48)
           0.2089 ( 50)  0.1010 ( 63)  0.1362 ( 65) -0.1450 ( 66) -0.1823 ( 76)
          -0.2066 ( 77) -0.1265 ( 78)  0.1865 ( 84)  0.1137 ( 89) -0.1131 ( 90)
          -0.1036 ( 91)  0.1523 ( 92)  0.1377 ( 94)  0.1416 (102)  0.1360 (106)
           0.1683 (107)
 CRD 41=   0.1859 (  3) -0.1974 (  5) -0.2038 (  9) -0.1093 ( 10)  0.2848 ( 12)
           0.1090 ( 19) -0.1515 ( 22)  0.1322 ( 25)  0.1829 ( 29)  0.1339 ( 34)
          -0.1895 ( 36) -0.1091 ( 41) -0.1081 ( 47)  0.1086 ( 48)  0.1345 ( 50)
          -0.1114 ( 68)  0.2186 ( 75) -0.2158 ( 77)  0.2305 ( 78) -0.2214 ( 80)
          -0.1372 ( 83)  0.2814 ( 84) -0.1035 ( 90) -0.1698 (104)
 CRD 42=  -0.1416 (  3)  0.1093 (  4) -0.1629 (  5)  0.1578 (  6)  0.1355 (  7)
          -0.1826 (  8)  0.1251 ( 11) -0.1691 ( 12)  0.1521 ( 23) -0.1803 ( 24)
          -0.1628 ( 27) -0.1512 ( 31)  0.1597 ( 35) -0.1203 ( 44)  0.1412 ( 45)
           0.1280 ( 56)  0.1605 ( 57)  0.1543 ( 61)  0.1034 ( 62)  0.1120 ( 67)
           0.2121 ( 68) -0.1438 ( 69)  0.1089 ( 73) -0.1898 ( 74)  0.1669 ( 77)
          -0.1681 ( 78) -0.1080 ( 82)  0.1236 ( 84) -0.1160 ( 86)  0.2610 ( 87)
           0.1202 ( 93) -0.1544 ( 96) -0.1653 ( 98)  0.1018 (114)
 CRD 43=  -0.1493 (  5) -0.1241 (  6)  0.2252 ( 11) -0.1359 ( 13)  0.2329 ( 14)
          -0.1057 ( 17)  0.1644 ( 21)  0.1220 ( 23) -0.1092 ( 26)  0.1160 ( 31)
          -0.1691 ( 32)  0.1495 ( 33)  0.1132 ( 34) -0.1304 ( 41) -0.1519 ( 44)
           0.2515 ( 60) -0.1008 ( 61) -0.1499 ( 67)  0.1350 ( 71)  0.1544 ( 72)
           0.2303 ( 73)  0.1153 ( 74) -0.1316 ( 82)  0.2428 ( 83)  0.1387 ( 86)
          -0.1041 ( 87)  0.2171 ( 95) -0.1760 ( 97) -0.2825 ( 98)
 CRD 44=   0.1516 (  6)  0.1131 (  7)  0.1501 ( 10)  0.1402 ( 12)  0.1910 ( 30)
           0.2970 ( 31) -0.1737 ( 59)  0.1110 ( 60) -0.2093 ( 62) -0.1863 ( 63)
           0.1512 ( 67)  0.2872 ( 69)  0.1600 ( 70) -0.1094 ( 75) -0.1089 ( 78)
           0.1133 ( 85) -0.2013 ( 86)  0.1828 ( 87)  0.2702 ( 95)  0.2165 ( 96)
          -0.1290 (100) -0.1167 (107) -0.1244 (111) -0.1474 (114)
 CRD 45=  -0.1131 (  8) -0.1128 ( 17) -0.1125 ( 25)  0.1415 ( 28) -0.2738 ( 30)
           0.2077 ( 51) -0.1236 ( 56) -0.1911 ( 57) -0.2306 ( 58) -0.1839 ( 59)
           0.1273 ( 61)  0.2526 ( 62)  0.2409 ( 64)  0.1309 ( 67)  0.1064 ( 82)
           0.1304 ( 88) -0.1271 ( 89) -0.1370 ( 90)  0.1428 ( 95)  0.1111 ( 96)
          -0.1200 ( 98)  0.1119 ( 99)  0.1815 (105)  0.1914 (107) -0.2093 (110)
          -0.2712 (111)

 THE DETERMINANT OF THE G MATRIX IS 10**(    -8)


                     --------------------
                     INTERNAL COORDINATES
                     --------------------

                 - - ATOMS - -         COORDINATE      COORDINATE
 NO.   TYPE    I  J  K  L  M  N        (BOHR,RAD)       (ANG,DEG)
 ----------------------------------------------------------------
   1 STRETCH   6 14                     3.9300846       2.0797113
   2 STRETCH   9 15                     3.7964660       2.0090034
   3 STRETCH   1  5                     2.0985399       1.1104996
   4 STRETCH   1  2                     2.8780654       1.5230067
   5 STRETCH   1  3                     2.8924931       1.5306415
   6 STRETCH   1  4                     2.1081192       1.1155687
   7 STRETCH   2 10                     2.1031140       1.1129201
   8 STRETCH   2  9                     2.8149408       1.4896026
   9 STRETCH   2 11                     2.0979553       1.1101902
  10 STRETCH   3  8                     2.1002043       1.1113803
  11 STRETCH   3  7                     2.0980529       1.1102419
  12 STRETCH   3  6                     2.8666908       1.5169875
  13 STRETCH   6 12                     2.0854488       1.1035721
  14 STRETCH   6  9                     2.6855447       1.4211291
  15 STRETCH   9 13                     2.0475624       1.0835234
  16 STRETCH  14 16                     2.2362055       1.1833491
  17 STRETCH  14 15                     2.3428350       1.2397750
  18 STRETCH  14 17                     2.2388293       1.1847375
  19 BEND      1  2 11                  1.9966380     114.3989319
  20 BEND      1  3  7                  1.9557414     112.0557277
  21 BEND      1  3  8                  1.9085732     109.3531898
  22 BEND      1  2  9                  1.7481241     100.1601342
  23 BEND      1  3  6                  1.7755987     101.7343131
  24 BEND      1  2 10                  1.8951135     108.5820030
  25 BEND      2  9  6                  1.9095723     109.4104332
  26 BEND      2  1  5                  2.0090688     115.1111634
  27 BEND      2  1  4                  1.8793994     107.6816523
  28 BEND      2  9 13                  2.1967071     125.8620481
  29 BEND      2  1  3                  1.7904063     102.5827267
  30 BEND      2  9 15                  1.8580380     106.4577374
  31 BEND      3  6 14                  1.8956128     108.6106116
  32 BEND      3  6  9                  1.8777024     107.5844245
  33 BEND      3  6 12                  2.1959423     125.8182237
  34 BEND      3  1  4                  1.8881548     108.1833031
  35 BEND      3  1  5                  1.9982557     114.4916159
  36 BEND      4  1  5                  1.8915731     108.3791532
  37 BEND      6 14 16                  2.0125081     115.3082190
  38 BEND      6  9 13                  2.1607415     123.8013694
  39 BEND      6  9 15                  1.3640630      78.1550546
  40 BEND      6 14 15                  1.3798643      79.0604025
  41 BEND      6  3  7                  1.9915811     114.1091893
  42 BEND      6  3  8                  1.9148036     109.7101675
  43 BEND      6 14 17                  1.9086650     109.3584488
  44 BEND      7  3  8                  1.9128005     109.5953976
  45 BEND      9  2 11                  1.9969733     114.4181428
  46 BEND      9  6 14                  1.6800603      96.2603670
  47 BEND      9  2 10                  1.8970209     108.6912888
  48 BEND      9  6 12                  2.0899951     119.7478994
  49 BEND      9 15 14                  1.8590799     106.5174336
  50 BEND     10  2 11                  1.9206541     110.0453713
  51 BEND     12  6 14                  1.6000177      91.6742604
  52 BEND     13  9 15                  1.6422692      94.0950939
  53 BEND     15 14 17                  2.0260710     116.0853182
  54 BEND     15 14 16                  2.0345813     116.5729221
  55 BEND     16 14 17                  2.0096501     115.1444714
  56 TORSION   1  2  9 15              -1.9954274    -114.3295701
  57 TORSION   1  2  9  6              -0.5477822     -31.3856100
  58 TORSION   1  3  6 14               2.1318973     122.1487198
  59 TORSION   1  3  6  9               0.3316693      19.0032508
  60 TORSION   1  3  6 12              -2.2956041    -131.5284290
  61 TORSION   1  2  9 13               2.4065771     137.8867096
  62 TORSION   2  9  6 14              -1.8140807    -103.9391670
  63 TORSION   2  9  6 12               2.8016099     160.5204244
  64 TORSION   2  9  6  3               0.1373967       7.8722484
  65 TORSION   2  9 15 14               1.8813320     107.7923807
  66 TORSION   2  1  3  7              -2.7964163    -160.2228491
  67 TORSION   2  1  3  6              -0.6619470     -37.9267706
  68 TORSION   2  1  3  8               1.3622757      78.0526497
  69 TORSION   3  6  9 15               1.9433708     111.3469432
  70 TORSION   3  6  9 13              -2.8216438    -161.6682805
  71 TORSION   3  6 14 17               2.3700338     135.7929363
  72 TORSION   3  6 14 15              -1.9234340    -110.2046507
  73 TORSION   3  6 14 16               0.0726558       4.1628716
  74 TORSION   3  1  2  9               0.7352096      42.1244080
  75 TORSION   3  1  2 10              -1.2511757     -71.6870843
  76 TORSION   3  1  2 11               2.8793614     164.9752536
  77 TORSION   4  1  2 11               0.8896739      50.9745582
  78 TORSION   4  1  3  7              -0.8131479     -46.5899433
  79 TORSION   4  1  2 10               3.0423222     174.3122203
  80 TORSION   4  1  2  9              -1.2544779     -71.8762874
  81 TORSION   4  1  3  8              -2.9376412    -168.3144445
  82 TORSION   4  1  3  6               1.3213213      75.7061353
  83 TORSION   5  1  3  8              -0.8266294     -47.3623745
  84 TORSION   5  1  2 10               0.9306493      53.3222799
  85 TORSION   5  1  2  9               2.9170346     167.1337722
  86 TORSION   5  1  3  7               1.2978639      74.3621267
  87 TORSION   5  1  2 11              -1.2219989     -70.0153822
  88 TORSION   5  1  3  6              -2.8508521    -163.3417947
  89 TORSION   6  9  2 11              -2.6916983    -154.2229509
  90 TORSION   6  9  2 10               1.4371425      82.3421973
  91 TORSION   6 14 15  9              -0.0096040      -0.5502679
  92 TORSION   6  9 15 14               0.0140998       0.8078563
  93 TORSION   7  3  6  9               2.4412945     139.8758714
  94 TORSION   7  3  6 14              -2.0416628    -116.9786596
  95 TORSION   7  3  6 12              -0.1859789     -10.6558085
  96 TORSION   8  3  6 12               1.9679205     112.7535398
  97 TORSION   8  3  6  9              -1.6879914     -96.7147803
  98 TORSION   8  3  6 14               0.1122367       6.4306887
  99 TORSION   9 15 14 17               1.8463125     105.7859116
 100 TORSION   9 15 14 16              -1.9811934    -113.5140201
 101 TORSION   9  6 14 17              -1.9766226    -113.2521346
 102 TORSION   9  6 14 15               0.0130948       0.7502784
 103 TORSION   9  6 14 16               2.0091846     115.1178007
 104 TORSION  10  2  9 15              -0.0105027      -0.6017628
 105 TORSION  10  2  9 13              -1.8916835    -108.3854831
 106 TORSION  11  2  9 15               2.1438418     122.8330891
 107 TORSION  11  2  9 13               0.2626610      15.0493687
 108 TORSION  12  6 14 17               0.1207554       6.9187752
 109 TORSION  12  6 14 15               2.1104729     120.9211882
 110 TORSION  12  6  9 15              -1.6756013     -96.0048808
 111 TORSION  12  6  9 13              -0.1574305      -9.0201044
 112 TORSION  12  6 14 16              -2.1766226    -124.7112895
 113 TORSION  13  9 15 14              -2.1448893    -122.8931054
 114 TORSION  13  9  6 14               1.5100642      86.5203041
 115 TORSION  14  6  9 15              -0.0081066      -0.4644722

     ------------------------------------------
     THE POINT GROUP IS C1 , NAXIS= 0, ORDER= 1
     ------------------------------------------

     DIMENSIONS OF THE SYMMETRY SUBSPACES ARE
 A   =   41

 ..... DONE SETTING UP THE RUN .....
 STEP CPU TIME =     0.07 TOTAL CPU TIME =          0.1 (      0.0 MIN)
 TOTAL WALL CLOCK TIME=          0.1 SECONDS, CPU UTILIZATION IS    77.78%


          -----------------------------
          STATIONARY POINT LOCATION RUN
          -----------------------------


           ** GEOMETRY CONSTRAINTS ARE BEING APPLIED. **

          TRANSFORMING DISPLACEMENT FROM INTERNALS TO CARTESIANS
          THE ROOT MEAN SQUARE ERROR IN ITERATION   1 IS   0.02171814
          THE ROOT MEAN SQUARE ERROR IN ITERATION   2 IS   0.00019556
          THE ROOT MEAN SQUARE ERROR IN ITERATION   3 IS   0.00000000
          THE ROOT MEAN SQUARE ERROR IN ITERATION   4 IS   0.00000000
 WARNING! THE RADIUS IN CARTESIANS IS    1.81192
 OBTAINING INITIAL HESSIAN, HESS=CALC    

     ---------------------------------
     HESSIAN MATRIX CONTROL PARAMETERS
     ---------------------------------
     METHOD=ANALYTIC   NVIB  =       2   VIBSIZ= 0.01000
     RDHESS=       F   PURIFY=       F   PRTIFC=       F
     VIBANL=       F   DECOMP=       F   PROJCT=       F
     SCLFAC= 1.00000   PRTSCN=       F   NPRT  =       0
     PULCOR=       F   NPUN  =       0   REDOVB=       T
     HSSTYP=GENERAL 
 Old integral subroutine is used

     ------------------------------
     CPHF RESPONSE SOLUTION OPTIONS
     ------------------------------
     POLAR  =       F     NWORD  =       0
     CPHF   =AO      

          ********************
          1 ELECTRON INTEGRALS
          ********************
 ...... END OF ONE-ELECTRON INTEGRALS ......
 STEP CPU TIME =     0.05 TOTAL CPU TIME =          0.1 (      0.0 MIN)
 TOTAL WALL CLOCK TIME=          0.2 SECONDS, CPU UTILIZATION IS    80.00%

          -------------
          GUESS OPTIONS
          -------------
          GUESS =HUCKEL            NORB  =       0          NORDER=       0
          MIX   =       F          PRTMO =       F          PUNMO =       F
          TOLZ  = 1.0E-08          TOLE  = 1.0E-05
          SYMDEN=       F          PURIFY=       F

 INITIAL GUESS ORBITALS GENERATED BY HUCKEL   ROUTINE.
 HUCKEL GUESS REQUIRES     30318 WORDS.

 SYMMETRIES FOR INITIAL GUESS ORBITALS FOLLOW.   BOTH SET(S).
    23 ORBITALS ARE OCCUPIED (    6 CORE ORBITALS).
     7=A        8=A        9=A       10=A       11=A       12=A       13=A   
    14=A       15=A       16=A       17=A       18=A       19=A       20=A   
    21=A       22=A       23=A       24=A       25=A       26=A       27=A   
    28=A       29=A       30=A       31=A       32=A       33=A   
 ...... END OF INITIAL ORBITAL SELECTION ......
 STEP CPU TIME =     0.01 TOTAL CPU TIME =          0.1 (      0.0 MIN)
 TOTAL WALL CLOCK TIME=          0.2 SECONDS, CPU UTILIZATION IS    81.25%

                    ----------------------
                    AO INTEGRAL TECHNOLOGY
                    ----------------------
     S,P,L SHELL ROTATED AXIS INTEGRALS, REPROGRAMMED BY
        KAZUYA ISHIMURA (IMS) AND JOSE SIERRA (SYNSTAR).
     S,P,D,L SHELL ROTATED AXIS INTEGRALS PROGRAMMED BY
        KAZUYA ISHIMURA (INSTITUTE FOR MOLECULAR SCIENCE).
     S,P,D,F,G SHELL TO TOTAL QUARTET ANGULAR MOMENTUM SUM 5,
        ERIC PROGRAM BY GRAHAM FLETCHER (ELORET AND NASA ADVANCED
        SUPERCOMPUTING DIVISION, AMES RESEARCH CENTER).
     S,P,D,F,G,L SHELL GENERAL RYS QUADRATURE PROGRAMMED BY
        MICHEL DUPUIS (PACIFIC NORTHWEST NATIONAL LABORATORY).

          --------------------
          2 ELECTRON INTEGRALS
          --------------------

 THE -PK- OPTION IS OFF, THE INTEGRALS ARE NOT IN SUPERMATRIX FORM.
 STORING   15000 INTEGRALS/RECORD ON DISK, USING 12 BYTES/INTEGRAL.
 TWO ELECTRON INTEGRAL EVALUATION REQUIRES   89632 WORDS OF MEMORY.
 SCHWARZ INEQUALITY OVERHEAD:       859 INTEGRALS, T=        0.00
 II,JST,KST,LST =  1  1  1  1 NREC =         1 INTLOC =    1
 II,JST,KST,LST =  2  1  1  1 NREC =         1 INTLOC =    2
 II,JST,KST,LST =  3  1  1  1 NREC =         1 INTLOC =   34
 II,JST,KST,LST =  4  1  1  1 NREC =         1 INTLOC =  142
 II,JST,KST,LST =  5  1  1  1 NREC =         1 INTLOC = 1362
 II,JST,KST,LST =  6  1  1  1 NREC =         1 INTLOC = 1937
 II,JST,KST,LST =  7  1  1  1 NREC =         1 INTLOC = 6804
 II,JST,KST,LST =  8  1  1  1 NREC =         1 INTLOC = 8840
 II,JST,KST,LST =  9  1  1  1 NREC =         1 INTLOC =11280
 II,JST,KST,LST = 10  1  1  1 NREC =         1 INTLOC =13751
 II,JST,KST,LST = 11  1  1  1 NREC =         3 INTLOC =  752
 II,JST,KST,LST = 12  1  1  1 NREC =         3 INTLOC = 6749
 II,JST,KST,LST = 13  1  1  1 NREC =         3 INTLOC =13577
 II,JST,KST,LST = 14  1  1  1 NREC =         4 INTLOC = 5465
 II,JST,KST,LST = 15  1  1  1 NREC =         7 INTLOC = 1497
 II,JST,KST,LST = 16  1  1  1 NREC =         7 INTLOC =14814
 II,JST,KST,LST = 17  1  1  1 NREC =         8 INTLOC =14495
 II,JST,KST,LST = 18  1  1  1 NREC =        10 INTLOC =  647
 II,JST,KST,LST = 19  1  1  1 NREC =        11 INTLOC = 3378
 II,JST,KST,LST = 20  1  1  1 NREC =        12 INTLOC = 5165
 II,JST,KST,LST = 21  1  1  1 NREC =        18 INTLOC =10883
 II,JST,KST,LST = 22  1  1  1 NREC =        20 INTLOC =10109
 II,JST,KST,LST = 23  1  1  1 NREC =        22 INTLOC =11615
 SCHWARZ INEQUALITY TEST SKIPPED        3003 INTEGRAL BLOCKS.
 TOTAL NUMBER OF NONZERO TWO-ELECTRON INTEGRALS =              360228
         25 INTEGRAL RECORDS WERE STORED ON DISK FILE  8.
  ...... END OF TWO-ELECTRON INTEGRALS .....
 STEP CPU TIME =     0.12 TOTAL CPU TIME =          0.2 (      0.0 MIN)
 TOTAL WALL CLOCK TIME=          0.3 SECONDS, CPU UTILIZATION IS    86.21%

          --------------------------
                 RHF SCF CALCULATION
          --------------------------

     NUCLEAR ENERGY =       241.8901205991
     MAXIT =   30     NPUNCH=    2
     EXTRAP=T  DAMP=F  SHIFT=F  RSTRCT=F  DIIS=F  DEM=F  SOSCF=T
     DENSITY MATRIX CONV=  1.00E-05
     SOSCF WILL OPTIMIZE     414 ORBITAL ROTATIONS, SOGTOL=   0.250
     MEMORY REQUIRED FOR RHF ITERS=     43997 WORDS.

 ITER EX DEM     TOTAL ENERGY        E CHANGE  DENSITY CHANGE     ORB. GRAD
   1  0  0     -217.2608939020  -217.2608939020   0.372768365   0.000000000
          ---------------START SECOND ORDER SCF---------------
   2  1  0     -217.6022985592    -0.3414046572   0.106482707   0.032392443
   3  2  0     -217.6201888795    -0.0178903202   0.043683553   0.008938844
   4  3  0     -217.6231362633    -0.0029473838   0.010374640   0.003824740
   5  4  0     -217.6234326419    -0.0002963786   0.004434084   0.001144752
   6  5  0     -217.6234766665    -0.0000440246   0.001531690   0.000383308
   7  6  0     -217.6234820132    -0.0000053467   0.000323112   0.000092942
   8  7  0     -217.6234822516    -0.0000002385   0.000113861   0.000020917
   9  8  0     -217.6234822798    -0.0000000281   0.000036234   0.000009717
  10  9  0     -217.6234822830    -0.0000000033   0.000008422   0.000002240
  11 10  0     -217.6234822833    -0.0000000003   0.000002320   0.000000972

          -----------------
          DENSITY CONVERGED
          -----------------
     TIME TO FORM FOCK OPERATORS=       0.1 SECONDS (       0.0 SEC/ITER)
     TIME TO SOLVE SCF EQUATIONS=       0.0 SECONDS (       0.0 SEC/ITER)

 FINAL RHF ENERGY IS     -217.6234822833 AFTER  11 ITERATIONS

          ------------
          EIGENVECTORS
          ------------

                      1          2          3          4          5
                  -11.1779   -11.0977   -11.0601   -11.0352   -10.9857
                     A          A          A          A          A   
    1  C  1  S   -0.000465  -0.002649   0.991952   0.005663   0.000684
    2  C  1  S   -0.000021  -0.005871   0.037096  -0.005569   0.000123
    3  C  1  X    0.000041  -0.003449   0.000273   0.003374  -0.000085
    4  C  1  Y    0.000405   0.002435  -0.000650   0.002629   0.000222
    5  C  1  Z    0.000314  -0.000537  -0.000427  -0.000413   0.000173
    6  C  2  S   -0.000584   0.991903   0.003600   0.000952   0.000327
    7  C  2  S   -0.005815   0.037636  -0.005711   0.000018   0.000202
    8  C  2  X    0.001075  -0.000946   0.003317   0.000263   0.000066
    9  C  2  Y    0.003314  -0.000846  -0.002751   0.000191   0.000020
   10  C  2  Z    0.002236  -0.000430   0.000461  -0.000104  -0.000125
   11  C  3  S   -0.000208  -0.000820  -0.004694   0.991954   0.002914
   12  C  3  S    0.000171  -0.000024  -0.005838   0.037131  -0.005790
   13  C  3  X   -0.000106  -0.000238  -0.003143   0.000718  -0.001499
   14  C  3  Y    0.000007   0.000214  -0.002765  -0.000060   0.003428
   15  C  3  Z   -0.000068  -0.000151   0.000349  -0.000076   0.002000
   16  H  4  S   -0.000164   0.000027  -0.006780  -0.000012  -0.000086
   17  H  5  S   -0.000191   0.000141  -0.006651   0.000082  -0.000149
   18  C  6  S    0.000770  -0.000261  -0.000582  -0.001965   0.991444
   19  C  6  S   -0.006475   0.000212   0.000145  -0.005866   0.040941
   20  C  6  X   -0.004257   0.000002  -0.000114   0.001533   0.002330
   21  C  6  Y   -0.000485   0.000048  -0.000155  -0.003477  -0.001860
   22  C  6  Z    0.000401  -0.000085   0.000103  -0.001961   0.002025
   23  H  7  S   -0.000063  -0.000148   0.000145  -0.006699   0.000028
   24  H  8  S    0.000026   0.000070   0.000048  -0.006746   0.000222
   25  C  9  S    0.992296   0.001510   0.000615   0.000277  -0.000004
   26  C  9  S    0.035390  -0.006360  -0.000050   0.000244  -0.007540
   27  C  9  X   -0.001206  -0.001447   0.000254  -0.000019   0.005014
   28  C  9  Y   -0.000504  -0.003524  -0.000287  -0.000001   0.000391
   29  C  9  Z    0.001186  -0.002530   0.000054  -0.000065  -0.000008
   30  H 10  S    0.000015  -0.006769  -0.000017   0.000002   0.000059
   31  H 11  S    0.000057  -0.006654   0.000098  -0.000158  -0.000096
   32  H 12  S    0.000100  -0.000088  -0.000020   0.000078  -0.006476
   33  H 13  S   -0.006497   0.000080  -0.000070  -0.000091   0.000157
   34  B 14  S    0.000007   0.000003  -0.000002   0.000089   0.000507
   35  B 14  S    0.000960   0.000002  -0.000043  -0.000157  -0.008110
   36  B 14  X    0.000451  -0.000015   0.000069   0.000088  -0.000252
   37  B 14  Y   -0.000342   0.000005   0.000012  -0.000251  -0.004371
   38  B 14  Z    0.000273   0.000003   0.000073  -0.000141   0.003350
   39  H 15  S   -0.004387   0.000098  -0.000045   0.000051   0.000745
   40  H 16  S   -0.000112   0.000020  -0.000007   0.000212   0.000564
   41  H 17  S   -0.000093  -0.000009   0.000029  -0.000058   0.000798

                      6          7          8          9         10
                   -7.3008    -1.1472    -0.9759    -0.9445    -0.7739
                     A          A          A          A          A   
    1  C  1  S   -0.000008  -0.086538  -0.142060  -0.049750  -0.127729
    2  C  1  S    0.000020   0.218993   0.400557   0.144147   0.403758
    3  C  1  X    0.000077   0.014206   0.026684  -0.117612  -0.005324
    4  C  1  Y   -0.000075  -0.059414  -0.028679  -0.013876   0.132779
    5  C  1  Z    0.000032  -0.002511   0.006307  -0.001525  -0.060844
    6  C  2  S    0.000017  -0.115795  -0.093428   0.125225   0.090249
    7  C  2  S   -0.000031   0.300147   0.267986  -0.365704  -0.286594
    8  C  2  X    0.000134  -0.060056  -0.044346  -0.041270  -0.099582
    9  C  2  Y    0.000056  -0.034877   0.085082   0.063557   0.086809
   10  C  2  Z    0.000062  -0.035872   0.015594   0.029113  -0.087995
   11  C  3  S    0.000151  -0.076037  -0.042626  -0.151947   0.078703
   12  C  3  S   -0.000357   0.190196   0.117392   0.430142  -0.244004
   13  C  3  X   -0.000097   0.051398   0.036399   0.024155   0.064517
   14  C  3  Y    0.000775  -0.012947   0.082195  -0.010676   0.111599
   15  C  3  Z   -0.000277  -0.017782   0.017621  -0.015740  -0.034869
   16  H  4  S   -0.000008   0.041760   0.097013   0.036688   0.198698
   17  H  5  S    0.000017   0.033278   0.100545   0.037456   0.176369
   18  C  6  S    0.000078  -0.109759   0.113185  -0.084462   0.017601
   19  C  6  S   -0.007049   0.265554  -0.303391   0.233810  -0.057187
   20  C  6  X    0.000273   0.073929  -0.085871  -0.057860   0.104453
   21  C  6  Y    0.003031   0.018402   0.070172   0.044394  -0.060177
   22  C  6  Z   -0.002824   0.032684  -0.006697   0.042724  -0.084568
   23  H  7  S   -0.000062   0.027891   0.028675   0.111207  -0.082293
   24  H  8  S   -0.000696   0.033021   0.027629   0.106845  -0.120703
   25  C  9  S    0.000045  -0.141315   0.099574   0.084451  -0.058627
   26  C  9  S   -0.000118   0.376561  -0.293485  -0.256511   0.194219
   27  C  9  X    0.000560  -0.059141   0.099660  -0.124468  -0.022121
   28  C  9  Y    0.000229   0.044889   0.099030  -0.053577  -0.131860
   29  C  9  Z   -0.000034   0.044847   0.037594  -0.034918  -0.151874
   30  H 10  S   -0.000211   0.056021   0.065765  -0.095043  -0.166152
   31  H 11  S   -0.000034   0.048884   0.070803  -0.112532  -0.117142
   32  H 12  S   -0.001633   0.039954  -0.076804   0.058652  -0.000271
   33  H 13  S   -0.000055   0.065769  -0.092258  -0.088385   0.162146
   34  B 14  S    0.989612  -0.034955   0.057158  -0.025118   0.010063
   35  B 14  S    0.044243   0.041754  -0.083237   0.040328  -0.022660
   36  B 14  X    0.002157   0.011340  -0.019770  -0.012234   0.023006
   37  B 14  Y    0.002876   0.024587  -0.036295   0.025132  -0.023848
   38  B 14  Z   -0.002594  -0.018017   0.035465  -0.014883  -0.013627
   39  H 15  S   -0.007908   0.050607  -0.085641  -0.021186   0.034423
   40  H 16  S   -0.006723   0.011088  -0.019645   0.017932  -0.029084
   41  H 17  S   -0.006932   0.008820  -0.024742   0.011267  -0.000059

                     11         12         13         14         15
                   -0.7504    -0.6851    -0.6628    -0.5903    -0.5496
                     A          A          A          A          A   
    1  C  1  S    0.035798   0.015048   0.021051   0.001374  -0.003707
    2  C  1  S   -0.112985  -0.050543  -0.069013  -0.003876   0.014160
    3  C  1  X   -0.142154   0.015949   0.052006  -0.017687   0.188527
    4  C  1  Y   -0.048594  -0.167148   0.015518  -0.028451  -0.102176
    5  C  1  Z   -0.009275  -0.108409  -0.155621   0.279634   0.158523
    6  C  2  S    0.039348   0.016893  -0.027350  -0.006026   0.001650
    7  C  2  S   -0.128080  -0.062489   0.093955   0.026244  -0.000711
    8  C  2  X    0.020554  -0.209677   0.187236  -0.065768  -0.057107
    9  C  2  Y   -0.139397  -0.086549   0.126216   0.029390   0.264857
   10  C  2  Z   -0.092370  -0.126001  -0.171010   0.324364  -0.206113
   11  C  3  S   -0.102173   0.023935  -0.009799  -0.000639  -0.001630
   12  C  3  S    0.320052  -0.080304   0.034501   0.006683   0.006434
   13  C  3  X   -0.068775   0.142890  -0.094168   0.054037   0.147569
   14  C  3  Y    0.078379  -0.049877  -0.042658   0.030667  -0.211215
   15  C  3  Z    0.036490  -0.102356  -0.172203   0.020799   0.288905
   16  H  4  S   -0.043183   0.010779   0.091281  -0.223215  -0.155257
   17  H  5  S   -0.063143  -0.151806  -0.088242   0.124282   0.019527
   18  C  6  S    0.096259  -0.016690  -0.066496  -0.037319  -0.008525
   19  C  6  S   -0.291901   0.048582   0.227660   0.126329   0.034453
   20  C  6  X    0.014648   0.129195  -0.152623   0.049183  -0.006541
   21  C  6  Y    0.152374   0.207448   0.036605   0.036332   0.028817
   22  C  6  Z   -0.000047  -0.002824  -0.197722  -0.191018   0.090691
   23  H  7  S    0.153070  -0.095441   0.103639  -0.032149  -0.265901
   24  H  8  S    0.120956  -0.110750  -0.094806  -0.005345   0.252451
   25  C  9  S   -0.096040  -0.023508   0.010773  -0.009691  -0.000137
   26  C  9  S    0.326092   0.081856  -0.035222   0.030889  -0.004857
   27  C  9  X    0.233804  -0.221934   0.060510  -0.125599   0.021963
   28  C  9  Y   -0.020666   0.257281   0.063664  -0.114986  -0.007685
   29  C  9  Z   -0.096232   0.107765  -0.192891  -0.189387  -0.188714
   30  H 10  S   -0.075964  -0.106434  -0.108516   0.247627  -0.234749
   31  H 11  S   -0.052383  -0.151960   0.228841  -0.101124   0.106690
   32  H 12  S   -0.152171  -0.086671   0.221899   0.118964  -0.046626
   33  H 13  S    0.257505  -0.189113   0.073199   0.107474   0.128727
   34  B 14  S    0.078232   0.090186   0.063581   0.119409  -0.003476
   35  B 14  S   -0.148963  -0.188749  -0.136167  -0.279148   0.011034
   36  B 14  X    0.009346  -0.006146  -0.073338  -0.004811  -0.067194
   37  B 14  Y   -0.040000  -0.000803  -0.023956  -0.005182   0.044621
   38  B 14  Z    0.058751   0.028716  -0.042132  -0.044350   0.040732
   39  H 15  S   -0.023776  -0.134358  -0.219622  -0.167071  -0.133836
   40  H 16  S   -0.042721  -0.083052  -0.079500  -0.174600   0.079228
   41  H 17  S   -0.068885  -0.099423  -0.023684  -0.126091  -0.018866

                     16         17         18         19         20
                   -0.5296    -0.5012    -0.4810    -0.4532    -0.4396
                     A          A          A          A          A   
    1  C  1  S   -0.021980   0.007641   0.001131   0.014802   0.001304
    2  C  1  S    0.080392  -0.033964   0.001321  -0.061608  -0.006010
    3  C  1  X    0.020041  -0.040535   0.040108   0.448832  -0.133384
    4  C  1  Y   -0.179107   0.331961  -0.256797   0.118631  -0.000962
    5  C  1  Z    0.008414   0.228911   0.119072  -0.130160  -0.311874
    6  C  2  S   -0.007662   0.004886  -0.025771  -0.017186   0.003554
    7  C  2  S    0.030500  -0.021789   0.100162   0.070644  -0.016076
    8  C  2  X   -0.320901   0.027450  -0.126994  -0.314819   0.092405
    9  C  2  Y   -0.172245  -0.271361   0.167527   0.102784  -0.149900
   10  C  2  Z    0.016937  -0.233048  -0.169564   0.077353   0.067105
   11  C  3  S    0.013549   0.018809  -0.008693   0.016003   0.003527
   12  C  3  S   -0.044426  -0.068680   0.029758  -0.067926  -0.013461
   13  C  3  X    0.096985  -0.150437  -0.149307  -0.431850   0.060724
   14  C  3  Y    0.000923  -0.014789   0.342243  -0.168334   0.069766
   15  C  3  Z   -0.018622   0.123178   0.103837   0.060202   0.405970
   16  H  4  S   -0.031355  -0.107760  -0.202328   0.150597   0.317933
   17  H  5  S   -0.084774   0.370946  -0.126559  -0.040017  -0.212948
   18  C  6  S    0.012064  -0.021549   0.046522   0.007709   0.003074
   19  C  6  S   -0.031142   0.078064  -0.180780  -0.031158  -0.016787
   20  C  6  X   -0.303885  -0.034674   0.179568   0.006263   0.060880
   21  C  6  Y   -0.090412  -0.085560  -0.206827  -0.038729  -0.227891
   22  C  6  Z   -0.106764  -0.055382  -0.208846   0.008890  -0.119453
   23  H  7  S   -0.082276   0.034160   0.213256   0.251659  -0.200285
   24  H  8  S   -0.040946   0.091296   0.046624   0.134915   0.351830
   25  C  9  S    0.008515  -0.041849  -0.006004  -0.014534   0.000905
   26  C  9  S   -0.029727   0.166124   0.024350   0.057149  -0.003927
   27  C  9  X    0.358548   0.038088  -0.192205  -0.055717  -0.045124
   28  C  9  Y    0.117131   0.305633   0.038673  -0.024909   0.005787
   29  C  9  Z    0.002080   0.219921   0.003984  -0.022040   0.024515
   30  H 10  S    0.046648  -0.157328  -0.169514   0.072585   0.123786
   31  H 11  S   -0.316105  -0.036112   0.053557  -0.247527  -0.006427
   32  H 12  S    0.238279   0.123640   0.076366  -0.028302   0.154273
   33  H 13  S    0.131482  -0.190196  -0.132743   0.030071  -0.064407
   34  B 14  S   -0.050504   0.029968  -0.027302   0.024450   0.046916
   35  B 14  S    0.130757  -0.078443   0.065609  -0.064992  -0.131708
   36  B 14  X   -0.110787  -0.040281   0.042661   0.009082   0.007440
   37  B 14  Y   -0.077567   0.029251  -0.150791   0.067434   0.032912
   38  B 14  Z   -0.026968  -0.041205  -0.096267   0.034782  -0.099111
   39  H 15  S   -0.091206  -0.110558   0.074862  -0.008272  -0.070408
   40  H 16  S    0.077306  -0.054649  -0.065761   0.011642  -0.127839
   41  H 17  S    0.173623  -0.033605   0.176980  -0.110904  -0.059210

                     21         22         23         24         25
                   -0.4081    -0.3440    -0.2965     0.1862     0.5372
                     A          A          A          A          A   
    1  C  1  S    0.019787   0.015450   0.009694  -0.015925   0.023029
    2  C  1  S   -0.077995  -0.065045  -0.042035   0.076553  -0.146472
    3  C  1  X   -0.066831   0.085375   0.093322   0.103076  -0.024318
    4  C  1  Y    0.129256   0.125732   0.065186  -0.024627  -0.103545
    5  C  1  Z   -0.046557  -0.035097  -0.003545   0.006247   0.090642
    6  C  2  S    0.005145   0.006635   0.008817   0.004060  -0.005769
    7  C  2  S   -0.022994  -0.027825  -0.039413  -0.014285   0.021096
    8  C  2  X    0.079169   0.023872   0.019519   0.004641  -0.280148
    9  C  2  Y   -0.082557  -0.011959   0.015477   0.021346  -0.399466
   10  C  2  Z    0.127935   0.058792  -0.022514   0.067644   0.080572
   11  C  3  S    0.015868  -0.023894  -0.016036  -0.005404   0.018466
   12  C  3  S   -0.062915   0.094379   0.068848   0.026639  -0.109958
   13  C  3  X   -0.060478  -0.009257   0.044083   0.022328   0.103293
   14  C  3  Y    0.041696  -0.229668  -0.193756  -0.018395  -0.208670
   15  C  3  Z    0.044093   0.011626   0.048248  -0.020736   0.179080
   16  H  4  S    0.073549   0.064274   0.023506   0.009098   0.229185
   17  H  5  S    0.048495   0.060017   0.048745  -0.057576   0.115963
   18  C  6  S    0.012912   0.004192   0.018947   0.003226   0.011857
   19  C  6  S   -0.042363  -0.016478  -0.078763  -0.012913  -0.070604
   20  C  6  X    0.204382   0.047812  -0.123255   0.080232   0.218142
   21  C  6  Y    0.153770   0.172605   0.381752   0.080181  -0.055237
   22  C  6  Z   -0.174151   0.179605  -0.448414  -0.091035   0.243542
   23  H  7  S    0.017115  -0.044543  -0.144712   0.001806   0.333516
   24  H  8  S    0.075756   0.053638   0.167954   0.016134  -0.169670
   25  C  9  S   -0.035351  -0.008249   0.011648  -0.045534   0.113056
   26  C  9  S    0.140142   0.031065  -0.028652   0.214555  -0.725293
   27  C  9  X   -0.254161  -0.030941   0.012525   0.005229  -0.300354
   28  C  9  Y    0.157979   0.009288  -0.028642  -0.609013   0.099020
   29  C  9  Z   -0.220751  -0.028162   0.090764   0.661686   0.204842
   30  H 10  S    0.162396   0.048504  -0.027810  -0.223283  -0.210278
   31  H 11  S   -0.012897  -0.017875   0.013516   0.106680   0.434330
   32  H 12  S   -0.063732  -0.210033   0.219884   0.102836   0.403492
   33  H 13  S   -0.014800   0.037447  -0.098684  -0.011164   0.776956
   34  B 14  S   -0.055051  -0.003640   0.030837   0.082939  -0.007341
   35  B 14  S    0.167071   0.017136  -0.074263  -0.308795   0.033422
   36  B 14  X   -0.199926  -0.033807   0.252795  -0.372255   0.342923
   37  B 14  Y   -0.151196  -0.291634  -0.275185  -0.091369  -0.164508
   38  B 14  Z    0.215744  -0.334956   0.194807   0.057906   0.222084
   39  H 15  S   -0.275013  -0.072633   0.462219  -0.228263  -0.292640
   40  H 16  S    0.374290  -0.384679  -0.002359   0.155200  -0.033654
   41  H 17  S    0.207766   0.477640   0.013738   0.122105   0.021018

                     26         27         28         29         30
                    0.5596     0.5825     0.5927     0.6271     0.6406
                     A          A          A          A          A   
    1  C  1  S    0.035399  -0.010410   0.055055  -0.039961  -0.030159
    2  C  1  S   -0.194327   0.073086  -0.311345   0.255464   0.194601
    3  C  1  X   -0.238730   0.608870   0.104958  -0.252505  -0.322763
    4  C  1  Y    0.281382   0.166984   0.339810   0.297142   0.301641
    5  C  1  Z    0.275839   0.235406  -0.530214   0.063869  -0.246086
    6  C  2  S    0.046564   0.004961  -0.005210  -0.136603  -0.055433
    7  C  2  S   -0.281947  -0.003136   0.018047   0.827881   0.346448
    8  C  2  X   -0.221602   0.577776  -0.059948  -0.017634   0.068048
    9  C  2  Y    0.564387  -0.008531   0.371736  -0.117035   0.332765
   10  C  2  Z    0.424954   0.224308  -0.294915   0.177416  -0.154201
   11  C  3  S    0.031607  -0.039501   0.001381  -0.001541  -0.090110
   12  C  3  S   -0.172538   0.219036  -0.017785   0.035611   0.539008
   13  C  3  X   -0.078072   0.408279   0.199111  -0.455901  -0.139045
   14  C  3  Y    0.304960   0.219939   0.496700   0.216049  -0.326841
   15  C  3  Z    0.329982   0.146652  -0.190400   0.008728   0.116086
   16  H  4  S    0.299356   0.147848  -0.499278  -0.121079  -0.379915
   17  H  5  S   -0.364481  -0.310485   0.237668  -0.387347  -0.153608
   18  C  6  S   -0.005953  -0.056433  -0.025583  -0.103042   0.064859
   19  C  6  S    0.019336   0.348027   0.130417   0.617777  -0.363029
   20  C  6  X   -0.245723   0.378796   0.182515  -0.151595   0.048520
   21  C  6  Y    0.336943   0.016690   0.229523   0.051255  -0.324316
   22  C  6  Z    0.249212   0.052951   0.087059  -0.210903   0.410196
   23  H  7  S    0.027796   0.253842  -0.096088  -0.480163  -0.218370
   24  H  8  S   -0.193774  -0.150508   0.350468   0.012541  -0.425968
   25  C  9  S   -0.081821   0.001849   0.068179   0.076286  -0.063630
   26  C  9  S    0.496674  -0.026978  -0.445729  -0.486857   0.385821
   27  C  9  X    0.016197   0.482857   0.013891  -0.117743  -0.116600
   28  C  9  Y    0.454717   0.131628   0.185778  -0.057061  -0.134359
   29  C  9  Z    0.248824   0.043722   0.365080   0.112324  -0.053814
   30  H 10  S   -0.126529  -0.229011   0.385035  -0.554343   0.110931
   31  H 11  S    0.237466  -0.453731  -0.213113  -0.272858  -0.372581
   32  H 12  S    0.247055   0.096315   0.182680  -0.531891   0.496221
   33  H 13  S    0.095435  -0.144791   0.547295   0.381445  -0.208027
   34  B 14  S    0.006406  -0.029168   0.005242  -0.049197   0.025281
   35  B 14  S   -0.024175   0.128379  -0.030494   0.241056  -0.126053
   36  B 14  X   -0.161281   0.294642   0.068547   0.159408   0.199440
   37  B 14  Y    0.107588  -0.068345   0.142444  -0.134105  -0.362200
   38  B 14  Z    0.159788   0.100026  -0.042768  -0.001050   0.347135
   39  H 15  S    0.181345  -0.318830  -0.058347  -0.195186  -0.252399
   40  H 16  S   -0.200466   0.003071   0.016446  -0.036961  -0.035729
   41  H 17  S    0.112287   0.009406   0.126715  -0.132623  -0.046187

                     31         32         33         34         35
                    0.6817     0.7130     0.7184     0.7421     0.7683
                     A          A          A          A          A   
    1  C  1  S    0.054178   0.070361  -0.166353   0.108379   0.059229
    2  C  1  S   -0.333286  -0.442129   1.029560  -0.666132  -0.358563
    3  C  1  X   -0.303032  -0.093444   0.318525   0.528477   0.101860
    4  C  1  Y   -0.091118  -0.040709   0.279855  -0.139072   0.494063
    5  C  1  Z   -0.126831   0.195643  -0.157289  -0.330451   0.603155
    6  C  2  S   -0.038883   0.080534   0.147571   0.006355  -0.023480
    7  C  2  S    0.238250  -0.517034  -0.917266  -0.043359   0.142736
    8  C  2  X   -0.140328  -0.429795  -0.156356  -0.086349  -0.195761
    9  C  2  Y    0.331018   0.267526  -0.323628  -0.204274  -0.034419
   10  C  2  Z    0.627528  -0.331234   0.280060   0.387421  -0.292346
   11  C  3  S    0.025221  -0.023422  -0.010908  -0.155344  -0.127355
   12  C  3  S   -0.167859   0.148371   0.076607   0.956896   0.783475
   13  C  3  X    0.073568  -0.088316  -0.169876  -0.063758   0.093998
   14  C  3  Y   -0.232107   0.113191  -0.015154   0.456021  -0.015558
   15  C  3  Z   -0.579429   0.013849  -0.219161   0.022507  -0.388635
   16  H  4  S    0.068613   0.349153  -0.652645   0.063990   0.464350
   17  H  5  S    0.277901   0.094781  -0.544694   0.582825  -0.472435
   18  C  6  S    0.042442  -0.106660   0.014131   0.035593   0.086795
   19  C  6  S   -0.252981   0.690682  -0.083126  -0.205768  -0.560997
   20  C  6  X    0.231092   0.023625   0.043570  -0.175016   0.219719
   21  C  6  Y   -0.221217  -0.216362  -0.094729  -0.139918  -0.122763
   22  C  6  Z   -0.026133  -0.120630   0.003206   0.077335  -0.084277
[...]
                   Z  0.00340884  0.03266433 -0.00315433  0.00197846  0.00277840
 17   H            X  0.00512005 -0.01632022 -0.00279647 -0.00363153 -0.00284300
                   Y  0.00852670 -0.03773436 -0.00183362  0.00224746  0.00701398
                   Z  0.01278814 -0.11909016  0.00592029 -0.00396347 -0.00751338

 TRANS. SAYVETZ    X  0.00000021 -0.00000097 -0.00000041 -0.00000046 -0.00000017
                   Y -0.00000089  0.00000029  0.00000005 -0.00000009  0.00000026
                   Z  0.00000022  0.00000149 -0.00000008  0.00000002  0.00000001
               TOTAL  0.00000094  0.00000181  0.00000042  0.00000047  0.00000031

   ROT. SAYVETZ    X -0.34894906 -0.00067539  0.03016399  0.01120793 -0.00259824
                   Y -0.05572796 -0.00733981  0.00745626  0.00430281  0.00285548
                   Z  0.01660574 -0.00890817  0.00172583  0.00262517  0.00440093
               TOTAL  0.35376094  0.01156220  0.03111978  0.01228915  0.00585430

                           41          42          43          44          45
       FREQUENCY:      1990.02     3162.32     3309.53     3615.28     3622.09  
        SYMMETRY:         A           A           A           A           A   
    REDUCED MASS:      1.06598     1.06131     1.13300     1.06521     1.06732
    IR INTENSITY:      0.43794     0.28289     0.43117     0.04070     0.07085

  1   C            X -0.00492485 -0.00006874 -0.00001730  0.00255343 -0.00386816
                   Y  0.00005830  0.00006955  0.00001585  0.06367965 -0.01670039
                   Z -0.00195149  0.00005596  0.00010547 -0.01035239  0.00385943
  2   C            X  0.00715528  0.00007551 -0.00009543 -0.01101034  0.02668473
                   Y -0.00493555  0.00000631  0.00010701 -0.00447959  0.00494639
                   Z  0.00712009 -0.00002093 -0.00012862 -0.00472902  0.01405022
  3   C            X -0.00084243  0.00003113  0.00021714  0.02128281  0.05630326
                   Y -0.00426241 -0.00017975  0.00013885 -0.00828346 -0.01401721
                   Z -0.00260813  0.00005385 -0.00002589 -0.00674319 -0.02132294
  4   H            X  0.00348860  0.00000453 -0.00009552 -0.04533150  0.00769134
                   Y  0.00280865 -0.00003735  0.00002661 -0.32004252  0.08550009
                   Z  0.00007360  0.00015237 -0.00039965  0.56958604 -0.15288115
  5   H            X  0.01817456  0.00044682  0.00014563  0.00985267 -0.00037213
                   Y -0.00404707  0.00030730  0.00006769 -0.39458913  0.09396347
                   Z  0.00152218 -0.00013641 -0.00010985 -0.44942903  0.10785466
  6   C            X  0.00363283  0.00125487  0.00031589 -0.00079425 -0.00185178
                   Y  0.01062197 -0.00502764  0.00033098  0.00050069  0.00130823
                   Z -0.00607012  0.00257957  0.00036880  0.00016334 -0.00067881
  7   H            X  0.00147102 -0.00040761 -0.00158995 -0.17822495 -0.42116751
                   Y  0.01623197  0.00106991  0.00092212  0.10209520  0.23760661
                   Z  0.00934175  0.00091528 -0.00018810 -0.13594822 -0.32437030
  8   H            X -0.00064859 -0.00013736 -0.00003237 -0.07687463 -0.19830501
                   Y  0.00975287  0.00076050  0.00084132 -0.03136099 -0.07656287
                   Z -0.00102413 -0.00006147 -0.00128638  0.21157031  0.56149447
  9   C            X -0.05832740 -0.00182670 -0.00008816  0.00056478 -0.00116612
                   Y  0.01616751 -0.00083307  0.00045694  0.00021899 -0.00012326
                   Z -0.01621722  0.00008706  0.00061172  0.00006173  0.00032278
 10   H            X  0.00519974  0.00083915  0.00081688  0.02322210 -0.05354146
                   Y  0.00438531  0.00021923  0.00036292 -0.02628641  0.05988131
                   Z  0.01016223  0.00152865  0.00046052  0.11535437 -0.28675253
 11   H            X -0.00115536  0.00030736  0.00115440  0.11816468 -0.25169932
                   Y  0.00390957  0.00048052  0.00076914  0.05239650 -0.10817807
                   Z -0.00277434  0.00029343 -0.00004879 -0.05999596  0.12991816
 12   H            X -0.02299612  0.00475218 -0.00401707  0.00108351  0.00735383
                   Y  0.02201089  0.00032670 -0.00548378  0.00120768  0.00548075
                   Z  0.00259568  0.01016920 -0.00255087  0.00223964  0.01747124
 13   H            X  0.05006384 -0.00125757 -0.00041345 -0.00165269  0.00490421
                   Y -0.11036683  0.00011998 -0.00278576  0.00139439 -0.00465774
                   Z  0.10794310  0.00465082  0.00151618  0.00252642 -0.00915374
 14   B            X -0.02646093  0.01101220  0.00079620  0.00002226 -0.00005405
                   Y  0.00543056  0.05444241 -0.06445161  0.00001862  0.00004183
                   Z -0.00571195 -0.04372602 -0.08301119  0.00011223  0.00007453
 15   H            X  0.90816926  0.00331692  0.00155457 -0.00039370 -0.00058534
                   Y -0.21960154 -0.00092985 -0.00363471 -0.00002788 -0.00104651
                   Z  0.17576709 -0.00042811 -0.00626723  0.00024445 -0.00036125
 16   H            X -0.01755225 -0.06882628 -0.06061841 -0.00012492  0.00014436
                   Y  0.00199423  0.08619300  0.08231608  0.00004895  0.00037717
                   Z -0.00909687  0.69125272  0.63557552 -0.00030528  0.00059578
 17   H            X -0.02044860 -0.05297645  0.05044295  0.00005248  0.00003442
                   Y  0.00344674 -0.61221013  0.61815918  0.00013592 -0.00007642
                   Z  0.00276986 -0.26349019  0.26900784  0.00011287  0.00025113

 TRANS. SAYVETZ    X -0.00000060 -0.00000029 -0.00000002 -0.00000028 -0.00000036
                   Y  0.00000056  0.00000005 -0.00000002 -0.00000047  0.00000047
                   Z -0.00000076  0.00000005 -0.00000007 -0.00000040  0.00000006
               TOTAL  0.00000112  0.00000030  0.00000007  0.00000068  0.00000059

   ROT. SAYVETZ    X -0.00523895  0.00016477 -0.01408674  0.00023122  0.00010390
                   Y  0.32372125 -0.00155840 -0.00176992 -0.00019143 -0.00001434
                   Z  0.41848284 -0.00203072  0.00175970 -0.00021143 -0.00012877
               TOTAL  0.52910375  0.00256507  0.01430613  0.00036716  0.00016608

                           46          47          48          49          50
       FREQUENCY:      3625.96     3698.99     3706.63     3735.14     3740.39  
        SYMMETRY:         A           A           A           A           A   
    REDUCED MASS:      1.06895     1.09407     1.09723     1.11365     1.11119
    IR INTENSITY:      0.02055     0.07153     0.06708     0.00906     0.05188

  1   C            X -0.00014408  0.00005460  0.00011664  0.00381677  0.00191034
                   Y -0.02316416 -0.00005799  0.00066030 -0.01335017 -0.00452912
                   Z  0.00727726 -0.00004927 -0.00224310 -0.07703493 -0.03127442
  2   C            X -0.05414330 -0.00105990  0.00123035 -0.01011253 -0.01849538
                   Y -0.00760602 -0.00124003  0.00066957 -0.00688576 -0.01521603
                   Z -0.03042458 -0.00326235  0.00605215  0.01615638  0.03775272
  3   C            X  0.02373791  0.00033462 -0.00010757  0.01317186 -0.01773088
                   Y -0.00528523  0.00040003 -0.00059051 -0.01531379  0.02444751
                   Z -0.00957971  0.00444084  0.00664136  0.04088112 -0.06736682
  4   H            X  0.01888960  0.00001944 -0.00140751 -0.03518549 -0.01921226
                   Y  0.11959046 -0.00003292 -0.00993411 -0.25288856 -0.10950598
                   Z -0.21554974  0.00012495  0.01791606  0.44762457  0.19054032
  5   H            X -0.00360315 -0.00002346 -0.00005500 -0.00896321 -0.00196848
                   Y  0.11883449  0.00065516  0.00752926  0.40455051  0.15992893
                   Z  0.13718515  0.00063543  0.00830032  0.45136134  0.17888577
  6   C            X -0.00087534 -0.02504890 -0.02391671  0.00180150 -0.00122094
                   Y  0.00085116 -0.01118563 -0.00884769  0.00127221 -0.00091905
                   Z -0.00066364 -0.05814264 -0.04858622  0.00366561 -0.00284592
  7   H            X -0.16868954 -0.01323480 -0.02257677 -0.25105039  0.39091898
                   Y  0.09551170  0.00586260  0.01182702  0.14217354 -0.21912870
                   Z -0.13040760 -0.00994622 -0.01687046 -0.18860047  0.29456840
  8   H            X -0.08362746  0.01100658  0.01819268  0.10098392 -0.18307977
                   Y -0.03188962  0.00614216  0.00888351  0.03654779 -0.06688923
                   Z  0.23789062 -0.03260570 -0.05178918 -0.28610466  0.49956226
  9   C            X  0.00278246 -0.02504981  0.03348182 -0.00159997 -0.00010063
                   Y  0.00088804  0.01856684 -0.02055970  0.00131540  0.00045393
                   Z -0.00190888  0.04503295 -0.05251620  0.00231738  0.00018648
 10   H            X  0.10876709  0.00399752 -0.00837712 -0.02031280 -0.05758915
                   Y -0.12098725 -0.00753066  0.01323241  0.02265430  0.06165394
                   Z  0.58950075  0.02456769 -0.04867909 -0.11887225 -0.30327663
 11   H            X  0.48447361  0.00590539  0.00347505  0.13341234  0.27563523
                   Y  0.20789813  0.00430410 -0.00002417  0.05781787  0.11734275
                   Z -0.25098613 -0.00229962 -0.00225262 -0.06694813 -0.13889204
 12   H            X  0.00610538  0.28329336  0.24053430 -0.01875519  0.01631540
                   Y  0.00345439  0.13018260  0.10999870 -0.00983781  0.00998273
                   Z  0.01311938  0.65458730  0.55224741 -0.04401386  0.03913261
 13   H            X -0.02062454  0.30049296 -0.35325254  0.01545945  0.00253581
                   Y  0.01533467 -0.19632717  0.23019051 -0.01044569 -0.00292753
                   Z  0.03514503 -0.49994645  0.58643893 -0.02563491 -0.00495969
 14   B            X -0.00004742  0.00024380  0.00007997 -0.00003530  0.00000773
                   Y -0.00002223 -0.00203990 -0.00286808  0.00022776 -0.00015533
                   Z  0.00038679  0.00091646  0.00220203 -0.00002767 -0.00007648
 15   H            X  0.00039798  0.00698939 -0.00490495  0.00033210  0.00042491
                   Y  0.00171255 -0.00094440 -0.00203267  0.00041844 -0.00048562
                   Z  0.00129589 -0.00509480  0.00802692 -0.00066635 -0.00011621
 16   H            X -0.00051172  0.00354245 -0.00055037  0.00009905  0.00008932
                   Y -0.00053450 -0.00107915 -0.00267339 -0.00020217  0.00054180
                   Z -0.00149988  0.00071917 -0.00116635 -0.00037859  0.00134720
 17   H            X -0.00001956 -0.00014967 -0.00059894  0.00009361  0.00017514
                   Y -0.00008454  0.00385663  0.00567846 -0.00080184  0.00073145
                   Z  0.00038714  0.00189596  0.00315121 -0.00059695  0.00069794

 TRANS. SAYVETZ    X  0.00000008 -0.00000005  0.00000003 -0.00000001 -0.00000007
                   Y  0.00000035  0.00000010 -0.00000034  0.00000007 -0.00000000
                   Z  0.00000012 -0.00000032 -0.00000013 -0.00000003 -0.00000017
               TOTAL  0.00000038  0.00000034  0.00000036  0.00000007  0.00000018

   ROT. SAYVETZ    X -0.00044769  0.01473114 -0.00423919  0.00006646  0.00043964
                   Y -0.00044982  0.00380262 -0.00608229  0.00031728  0.00003468
                   Z -0.00036921  0.00097396 -0.00683996  0.00041145 -0.00002485
               TOTAL  0.00073422  0.01524517  0.01008712  0.00052381  0.00044171

                           51
       FREQUENCY:      3744.93  
        SYMMETRY:         A   
    REDUCED MASS:      1.11053
    IR INTENSITY:      0.00722

  1   C            X  0.00171585
                   Y -0.00397385
                   Z -0.03696255
  2   C            X  0.03166221
                   Y  0.02670814
                   Z -0.06608684
  3   C            X -0.00755553
                   Y  0.01019444
                   Z -0.02775066
  4   H            X -0.01753764
                   Y -0.13952807
                   Z  0.23800539
  5   H            X -0.00432928
                   Y  0.18144186
                   Z  0.20376664
  6   C            X -0.00108178
                   Y -0.00055261
                   Z -0.00221144
  7   H            X  0.16117042
                   Y -0.09043613
                   Z  0.12193757
  8   H            X -0.07712050
                   Y -0.02825518
                   Z  0.20691084
  9   C            X  0.00128221
                   Y -0.00103594
                   Z -0.00218483
 10   H            X  0.10719647
                   Y -0.11224718
                   Z  0.54150331
 11   H            X -0.47425771
                   Y -0.20149222
                   Z  0.24019931
 12   H            X  0.01111912
                   Y  0.00631197
                   Z  0.02686454
 13   H            X -0.01556989
                   Y  0.01265200
                   Z  0.02777281
 14   B            X  0.00004191
                   Y -0.00026085
                   Z  0.00001457
 15   H            X -0.00033983
                   Y -0.00004630
                   Z  0.00149664
 16   H            X -0.00029803
                   Y  0.00002018
                   Z  0.00010293
 17   H            X -0.00034175
                   Y  0.00126642
                   Z  0.00104017

 TRANS. SAYVETZ    X  0.00000007
                   Y  0.00000000
                   Z -0.00000024
               TOTAL  0.00000025

   ROT. SAYVETZ    X -0.00026306
                   Y -0.00031989
                   Z -0.00031914
               TOTAL  0.00052285

 REFERENCE ON SAYVETZ CONDITIONS - A. SAYVETZ, J.CHEM.PHYS., 7, 383-389(1939).

 NOTE - THE MODES J,K ARE ORTHONORMALIZED ACCORDING TO
 SUM ON I   M(I) * (X(I,J)*X(I,K) + Y(I,J)*Y(I,K) + Z(I,J)*Z(I,K)) = DELTA(J,K)

  MODE FREQ(CM**-1)  SYMMETRY  RED. MASS  IR INTENS.
     1     909.941    A        1.523873    8.943541
     2     100.666    A        2.631708    0.059567
     3      10.166    A        3.033616    0.035442
     4       0.007    A        4.829228    0.000000
     5       0.003    A        4.829136    0.000000
     6       0.008    A        4.829255    0.000000
     7      48.140    A        2.701751    0.057182
     8     143.592    A        1.854960    0.051242
     9     264.365    A        1.745679    0.109325
    10     407.033    A        2.055878    0.053552
    11     630.680    A        2.631166    0.189900
    12     686.228    A        1.989018    0.245118
    13     761.768    A        3.354852    0.022795
    14     874.815    A        1.268121    0.115073
    15     960.105    A        1.582718    0.044820
    16     988.695    A        1.599882    0.017263
    17    1019.653    A        1.932865    0.023237
    18    1056.660    A        1.920086    0.016654
    19    1093.176    A        1.912975    0.031122
    20    1136.376    A        1.427953    0.040416
    21    1187.657    A        1.371246    0.032348
    22    1235.464    A        1.462655    0.050330
    23    1245.519    A        1.250961    0.159963
    24    1300.633    A        1.407472    0.094443
    25    1367.703    A        1.354230    0.394808
    26    1379.904    A        1.608678    0.298022
    27    1442.706    A        1.327781    0.385838
    28    1462.899    A        1.339772    0.019904
    29    1479.646    A        1.202962    0.394255
    30    1490.516    A        1.239445    0.078527
    31    1532.387    A        1.334750    1.134267
    32    1541.088    A        1.488983    0.113381
    33    1588.336    A        1.297595    0.082946
    34    1628.121    A        1.398245    0.023995
    35    1633.340    A        1.573880    0.102112
    36    1641.824    A        1.474437    0.041800
    37    1691.620    A        2.636100    0.232052
    38    1801.830    A        1.103117    0.022277
    39    1823.443    A        1.103732    0.001939
    40    1840.313    A        1.120307    0.003855
    41    1990.016    A        1.065978    0.437936
    42    3162.321    A        1.061307    0.282890
    43    3309.527    A        1.133003    0.431174
    44    3615.275    A        1.065208    0.040696
    45    3622.088    A        1.067319    0.070850
    46    3625.961    A        1.068949    0.020552
    47    3698.993    A        1.094068    0.071527
    48    3706.627    A        1.097234    0.067076
    49    3735.139    A        1.113655    0.009062
    50    3740.392    A        1.111185    0.051883
    51    3744.931    A        1.110527    0.007224

     -------------------------------
     THERMOCHEMISTRY AT T=  298.15 K
     -------------------------------

 USING IDEAL GAS, RIGID ROTOR, HARMONIC NORMAL MODE APPROXIMATIONS.
 P=  1.01325E+05 PASCAL.
 ALL FREQUENCIES ARE SCALED BY   1.00000
 THE MOMENTS OF INERTIA ARE (IN AMU*BOHR**2)
            314.25271           500.89912           674.83971
 THE ROTATIONAL SYMMETRY NUMBER IS  1.0
 THE ROTATIONAL CONSTANTS ARE (IN GHZ)
      5.73770     3.59970     2.67188
   1 IMAGINARY FREQUENCY VIBRATION(S) IS(ARE) EXCLUDED
     FROM THE FOLLOWING THERMOCHEMICAL ANALYSIS.
      8 -     51 VIBRATIONAL MODES ARE USED IN THERMOCHEMISTRY.
 THE HARMONIC ZERO POINT ENERGY IS (SCALED BY   1.000)
        0.178356 HARTREE/MOLECULE    39144.683473 CM**-1/MOLECULE 
      111.920379 KCAL/MOL              468.274864 KJ/MOL

               Q               LN Q
 ELEC.     1.00000E+00       0.000000
 TRANS.    2.92369E+07      17.190943
 ROT.      1.16669E+05      11.667098
 VIB.      3.89274E+00       1.359114
 TOT.      1.32783E+13      30.217156

              E         H         G         CV        CP        S
           KJ/MOL    KJ/MOL    KJ/MOL   J/MOL-K   J/MOL-K   J/MOL-K
 ELEC.      0.000     0.000     0.000     0.000     0.000     0.000
 TRANS.     3.718     6.197   -42.615    12.472    20.786   163.719
 ROT.       3.718     3.718   -28.922    12.472    12.472   109.477
 VIB.     473.922   473.922   464.906    49.933    49.933    30.240
 TOTAL    481.359   483.838   393.368    74.876    83.190   303.436
 VIB. THERMAL CORRECTION E(T)-E(0) = H(T)-H(0) =      5647.008 J/MOL

              E         H         G         CV        CP        S
         KCAL/MOL  KCAL/MOL  KCAL/MOL CAL/MOL-K CAL/MOL-K CAL/MOL-K
 ELEC.      0.000     0.000     0.000     0.000     0.000     0.000
 TRANS.     0.889     1.481   -10.185     2.981     4.968    39.130
 ROT.       0.889     0.889    -6.913     2.981     2.981    26.166
 VIB.     113.270   113.270   111.115    11.934    11.934     7.228
 TOTAL    115.047   115.640    94.017    17.896    19.883    72.523
 VIB. THERMAL CORRECTION E(T)-E(0) = H(T)-H(0) =      1349.667 CAL/MOL

     *******************************************************
     * THIS IS NOT A STATIONARY POINT ON THE MOLECULAR PES *
     *     THE VIBRATIONAL ANALYSIS IS NOT VALID !!!       *
     *******************************************************
 ......END OF NORMAL COORDINATE ANALYSIS......
 STEP CPU TIME =     0.00 TOTAL CPU TIME =         32.9 (      0.5 MIN)
 TOTAL WALL CLOCK TIME=         33.2 SECONDS, CPU UTILIZATION IS    99.16%
               580000  WORDS OF DYNAMIC MEMORY USED
 EXECUTION OF GAMESS TERMINATED NORMALLY Sun Nov 14 22:55:30 2021
 DDI: 263640 bytes (0.3 MB / 0 MWords) used by master data server.

 ----------------------------------------
 CPU timing information for all processes
 ========================================
 0: 32.80 + 0.863 = 32.944
 ----------------------------------------
 ddikick.x: exited gracefully.
----- accounting info -----
Files used on the master node chemcompute-node-0.novalocal were:
-rw-r--r--. 1 chemcomp chemcomp     1209 Nov 14 22:54 /scratch/306565/342576.F05
-rw-rw-r--. 1 chemcomp chemcomp  4320384 Nov 14 22:55 /scratch/306565/342576.F08
-rw-rw-r--. 1 chemcomp chemcomp 85196800 Nov 14 22:55 /scratch/306565/342576.F10
-rw-rw-r--. 1 chemcomp chemcomp   351696 Nov 14 22:55 /scratch/306565/342576.F18
Sun Nov 14 22:55:33 UTC 2021
0.138u 0.083s 0:36.75 0.5%	0+0k 8+216io 0pf+0w
Finishing Up...
Looking for IR data...
Looking for Raman data...
vibramans not found
Looking for thermodynamics data...
Looking for UV-Vis data...
306565
