----- GAMESS execution script 'rungms' -----
This job is running on host chemcompute-node-0.novalocal
under operating system Linux at Tue Nov 16 04:16:57 UTC 2021
SLURM has assigned the following compute nodes to this run:
chemcompute-node-0
Available scratch disk space (Kbyte units) at beginning of the job is
Filesystem     1K-blocks     Used Available Use% Mounted on
/dev/sda1       62903276 16820276  46083000  27% /
GAMESS temporary binary files will be written to /scratch/307378
GAMESS supplementary output files will be written to /data/slurm/343418
Copying input file 343418.inp to your run's scratch directory...
The generated host list is
chemcompute-node-0.novalocal

 Distributed Data Interface kickoff program.
 Initiating 1 compute processes on 1 nodes to run the following command:
 /data/gamess-2019R1-ddi/gamess.00.x 343418 

          ******************************************************
          *         GAMESS VERSION = 30 JUN 2019 (R1)          *
          *             FROM IOWA STATE UNIVERSITY             *
          * M.W.SCHMIDT, K.K.BALDRIDGE, J.A.BOATZ, S.T.ELBERT, *
          *   M.S.GORDON, J.H.JENSEN, S.KOSEKI, N.MATSUNAGA,   *
          *          K.A.NGUYEN, S.J.SU, T.L.WINDUS,           *
          *       TOGETHER WITH M.DUPUIS, J.A.MONTGOMERY       *
          *         J.COMPUT.CHEM.  14, 1347-1363(1993)        *
          **************** 64 BIT LINUX VERSION ****************

  SINCE 1993, STUDENTS AND POSTDOCS WORKING AT IOWA STATE UNIVERSITY
  AND ALSO IN THEIR VARIOUS JOBS AFTER LEAVING ISU HAVE MADE IMPORTANT
  CONTRIBUTIONS TO THE CODE:
     IVANA ADAMOVIC, CHRISTINE AIKENS, YURI ALEXEEV, POOJA ARORA,
     ANDREY ASADCHEV, ROB BELL, PRADIPTA BANDYOPADHYAY, JONATHAN BENTZ,
     COLLEEN BERTONI, BRETT BODE, KURT BRORSEN, CALEB CARLIN, GALINA CHABAN,
     WEI CHEN, CHEOL HO CHOI, PAUL DAY, ALBERT DEFUSCO, NUWAN DESILVA,
     TIM DUDLEY, DMITRI FEDOROV, ALEX FINDLATER, GRAHAM FLETCHER, 
     MARK FREITAG, KURT GLAESEMANN, ANASTASIA GUNINA,
     DAN KEMP, GRANT MERRILL, NORIYUKI MINEZAWA, JONATHAN MULLIN,
     TAKESHI NAGATA, SEAN NEDD, HEATHER NETZLOFF, BOSILJKA NJEGIC, RYAN OLSON,
     MIKE PAK, BUU PHAM,
     SPENCER PRUITT, LUKE ROSKOP, JIM SHOEMAKER, LYUDMILA SLIPCHENKO,
     TONY SMITH, SAROM SOK LEANG, JIE SONG, TETSUYA TAKETSUGU, SIMON WEBB,
     PENG XU, SOOHAENG YOO, FEDERICO ZAHARIEV

  ADDITIONAL CODE HAS BEEN PROVIDED BY COLLABORATORS IN OTHER GROUPS:
     IOWA STATE UNIVERSITY:
          JOE IVANIC, AARON WEST, LAIMUTIS BYTAUTAS, KLAUS RUEDENBERG
     UNIVERSITY OF TOKYO: KIMIHIKO HIRAO, TAKAHITO NAKAJIMA,
          TAKAO TSUNEDA, MUNEAKI KAMIYA, SUSUMU YANAGISAWA,
          KIYOSHI YAGI, MAHITO CHIBA, SEIKEN TOKURA, NAOAKI KAWAKAMI
     UNIVERSITY OF AARHUS: FRANK JENSEN
     UNIVERSITY OF IOWA: VISVALDAS KAIRYS, HUI LI
     NATIONAL INST. OF STANDARDS AND TECHNOLOGY: WALT STEVENS, DAVID GARMER
     UNIVERSITY OF PISA: BENEDETTA MENNUCCI, JACOPO TOMASI
     UNIVERSITY OF MEMPHIS: HENRY KURTZ, PRAKASHAN KORAMBATH
     UNIVERSITY OF ALBERTA: TOBY ZENG, MARIUSZ KLOBUKOWSKI
     UNIVERSITY OF NEW ENGLAND: MARK SPACKMAN
     MIE UNIVERSITY: HIROAKI UMEDA
     NAT. INST. OF ADVANCED INDUSTRIAL SCIENCE AND TECHNOLOGY: KAZUO KITAURA
     MICHIGAN STATE UNIVERSITY:
          KAROL KOWALSKI, MARTA WLOCH, JEFFREY GOUR, JESSE LUTZ,
          WEI LI, JUN SHEN, J. EMILIANO DEUSTUA, PIOTR PIECUCH
     UNIVERSITY OF MINNESOTA:
          YINAN SHU
     UNIVERSITY OF SILESIA: MONIKA MUSIAL, STANISLAW KUCHARSKI
     FACULTES UNIVERSITAIRES NOTRE-DAME DE LA PAIX:
          OLIVIER QUINET, BENOIT CHAMPAGNE
     UNIVERSITY OF CALIFORNIA - SANTA BARBARA: BERNARD KIRTMAN
     INSTITUTE FOR MOLECULAR SCIENCE:
          KAZUYA ISHIMURA, MICHIO KATOUDA, AND SHIGERU NAGASE
     UNIVERSITY OF NOTRE DAME: ANNA POMOGAEVA, DAN CHIPMAN
     KYUSHU UNIVERSITY:
          HARUYUKI NAKANO,
          FENG LONG GU, JACEK KORCHOWIEC, MARCIN MAKOWSKI, AND YURIKO AOKI,
          HIROTOSHI MORI AND EISAKU MIYOSHI
     PENNSYLVANIA STATE UNIVERSITY:
          TZVETELIN IORDANOV, CHET SWALINA, JONATHAN SKONE,
          SHARON HAMMES-SCHIFFER
     WASEDA UNIVERSITY:
          MASATO KOBAYASHI, TOMOKO AKAMA, TSUGUKI TOUMA,
          TAKESHI YOSHIKAWA, YASUHIRO IKABATA, JUNJI SEINO,
          YUYA NAKAJIMA, HIROMI NAKAI
     NANJING UNIVERSITY: SHUHUA LI
     UNIVERSITY OF NEBRASKA:
          PEIFENG SU, DEJUN SI, NANDUN THELLAMUREGE, YALI WANG, HUI LI
     UNIVERSITY OF ZURICH: ROBERTO PEVERATI, KIM BALDRIDGE
     N. COPERNICUS UNIVERSITY AND JACKSON STATE UNIVERSITY:
          MARIA BARYSZ
     UNIVERSITY OF COPENHAGEN: Jimmy Kromann, CASPER STEINMANN
     TOKYO INSTITUTE OF TECHNOLOGY: HIROYA NAKATA
     NAGOYA UNIVERSITY: YOSHIO NISHIMOTO, STEPHAN IRLE
     MOSCOW STATE UNIVERSITY: VLADIMIR MIRONOV
     A.N.NESMEYANOV INSTITUTE OF ORGANOELEMENT COMPOUNDS OF RUSSIAN ACADEMY OF SCIENCES:
          IGOR S. GERASIMOV

 EXECUTION OF GAMESS BEGUN Tue Nov 16 04:16:59 2021

            ECHO OF THE FIRST FEW INPUT CARDS -
 INPUT CARD>!File created by the GAMESS Input Deck Generator Plugin for Avogadro            
 INPUT CARD> $BASIS GBASIS=STO NGAUSS=3 $END                                                
 INPUT CARD> $CONTRL SCFTYP=RHF RUNTYP=SADPOINT $END                                        
 INPUT CARD> $STATPT hssend=.t. OPTTOL=0.0005 NSTEP=50 $END                                 
 INPUT CARD> $STATPT HESS=calc ihrep=5 $END                                                 
 INPUT CARD> $FORCE nvib=2 $END                                                             
 INPUT CARD> $ZMAT DLC=.t. auto=.t. nonvdw(1)=1,6,3,4 $END                                  
 INPUT CARD>!$ZMAT IFZMAT(1)=1,1,6,1,3,4 fvalue(1)=2.00,2.00 $END                           
 INPUT CARD>                                                                                
 INPUT CARD>                                                                                
 INPUT CARD> $DATA                                                                          
 INPUT CARD>Title                                                                           
 INPUT CARD>C1                                                                              
 INPUT CARD>C     6.0     7.36072540    -0.04892119    -4.54048061                          
 INPUT CARD>C     6.0     6.11079788     0.40125200    -4.10032940                          
 INPUT CARD>C     6.0     6.03088522     1.54295897    -3.29448581                          
 INPUT CARD>C     6.0     7.06449032     1.12085271    -1.63512242                          
 INPUT CARD>C     6.0     7.55001402    -0.17821182    -1.82839549                          
 INPUT CARD>C     6.0     8.44544601    -0.36793518    -2.89075017                          
 INPUT CARD>C     6.0     9.47994041     0.71455026    -3.05974483                          
 INPUT CARD>C     6.0     9.33113098     1.90856957    -2.52252889                          
 INPUT CARD>C     6.0     8.09563923     2.25447416    -1.72365284                          
 INPUT CARD>O     8.0     7.92466497     3.34518337    -1.19554961                          
 INPUT CARD>H     1.0     7.39979076    -1.00034845    -5.06068897                          
 INPUT CARD>H     1.0     8.04098701     0.68372703    -4.95717430                          
 INPUT CARD>H     1.0     5.33114290    -0.34217903    -3.98115396                          
 INPUT CARD>H     1.0     5.06078196     1.81802380    -2.89463639                          
 INPUT CARD>H     1.0     6.62019205     2.40358615    -3.58794570                          
 INPUT CARD>H     1.0     6.32386923     1.27603662    -0.85590911                          
 INPUT CARD>H     1.0     6.96136904    -1.01817083    -1.48024511                          
 INPUT CARD>H     1.0     8.81276798    -1.37317216    -3.07314253                          
 INPUT CARD>H     1.0    10.35933018     0.46721503    -3.64437151                          
 INPUT CARD>H     1.0    10.08450031     2.67990780    -2.61400461                          
 INPUT CARD> $END                                                                           
    1000000 WORDS OF MEMORY AVAILABLE

     BASIS OPTIONS
     -------------
     GBASIS=STO          IGAUSS=       3      POLAR=NONE    
     NDFUNC=       0     NFFUNC=       0     DIFFSP=       F
     NPFUNC=       0      DIFFS=       F     BASNAM=        


     RUN TITLE
     ---------
 Title                                                                           

 THE POINT GROUP OF THE MOLECULE IS C1      
 THE ORDER OF THE PRINCIPAL AXIS IS     0

 ATOM      ATOMIC                      COORDINATES (BOHR)
           CHARGE         X                   Y                   Z
 C           6.0    13.9097540769       -0.0924476441       -8.5802642055
 C           6.0    11.5477335596        0.7582563320       -7.7484990254
 C           6.0    11.3967205292        2.9157696636       -6.2256754513
 C           6.0    13.3499509477        2.1181044945       -3.0899333302
 C           6.0    14.2674577013       -0.3367715076       -3.4551664733
 C           6.0    15.9595788030       -0.6952966714       -5.4627257203
 C           6.0    17.9144897548        1.3503041959       -5.7820793210
 C           6.0    17.6332807077        3.6066735158       -4.7668883982
 C           6.0    15.2985398402        4.2603384088       -3.2572315656
 O           8.0    14.9754453378        6.3214799480       -2.2592611676
 H           1.0    13.9835769029       -1.8903844627       -9.5633154624
 H           1.0    15.1952621197        1.2920567371       -9.3677011004
 H           1.0    10.0743992824       -0.6466246054       -7.5232900993
 H           1.0     9.5634911880        3.4355668212       -5.4700696112
 H           1.0    12.5103489606        4.5421192114       -6.7802342318
 H           1.0    11.9503800269        2.4113595621       -1.6174336883
 H           1.0    13.1550799850       -1.9240638774       -2.7972576526
 H           1.0    16.6537166756       -2.5949191164       -5.8073973029
 H           1.0    19.5762954565        0.8829083840       -6.8868635514
 H           1.0    19.0569423090        5.0642914144       -4.9397524435

          INTERNUCLEAR DISTANCES (ANGS.)
          ------------------------------

                1 C          2 C          3 C          4 C          5 C     

   1 C       0.0000000    1.3995384 *  2.4197232 *  3.1459867    2.7217553 *
   2 C       1.3995384 *  0.0000000    1.3997374 *  2.7394525 *  2.7511461 *
   3 C       2.4197232 *  1.3997374 *  0.0000000    2.0000000 *  2.7238946 *
   4 C       3.1459867    2.7394525 *  2.0000000 *  0.0000000    1.4002344 *
   5 C       2.7217553 *  2.7511461 *  2.7238946 *  1.4002344 *  0.0000000  
   6 C       1.9999998 *  2.7395826 *  3.1055793    2.3874943 *  1.4022806 *
   7 C       2.6956519 *  3.5400697    3.5549045    2.8335543 *  2.4572060 *
   8 C       3.4331323    3.8899879    3.4089897    2.5584464 *  2.8299921 *
   9 C       3.7121755    3.6086866    2.6901634 *  1.5349929 *  2.4953234 *
  10 O       4.7985974    4.5160371    3.3526031    2.4250302 *  3.5993292  
  11 H       1.0850607 *  2.1326690 *  3.3855263    4.0430715    3.3385920  
  12 H       1.0831264 *  2.1306350 *  2.7465108 *  3.4900793    3.2822629  
  13 H       2.1255709 *  1.0838609 *  2.1248289 *  3.2632528    3.0959075  
  14 H       3.3888090    2.1362283 *  1.0847306 *  2.4672394 *  3.3642388  
  15 H       2.7332224 *  2.1286995 *  1.0835499 *  2.3783029 *  3.2597955  
  16 H       4.0505124    3.3670329    2.4705755 *  1.0861745 *  2.1363519 *
  17 H       3.2348063    3.0988827    3.2736303    2.1471010 *  1.0831633 *
  18 H       2.4525801 *  3.3918043    4.0362960    3.3681652    2.1381939 *
  19 H       3.1719141    4.2734384    4.4738217    3.9141147    3.4068463  
  20 H       4.3100774    4.8157808    4.2646808    3.5368522    3.8999552  

                6 C          7 C          8 C          9 C         10 O     

   1 C       1.9999998 *  2.6956519 *  3.4331323    3.7121755    4.7985974  
   2 C       2.7395826 *  3.5400697    3.8899879    3.6086866    4.5160371  
   3 C       3.1055793    3.5549045    3.4089897    2.6901634 *  3.3526031  
   4 C       2.3874943 *  2.8335543 *  2.5584464 *  1.5349929 *  2.4250302 *
   5 C       1.4022806 *  2.4572060 *  2.8299921 *  2.4953234 *  3.5993292  
   6 C       0.0000000    1.5068220 *  2.4703236 *  2.8916279 *  4.1148715  
   7 C       1.5068220 *  0.0000000    1.3177357 *  2.4643046 *  3.5797117  
   8 C       2.4703236 *  1.3177357 *  0.0000000    1.5113877 *  2.4089167 *
   9 C       2.8916279 *  2.4643046 *  1.5113877 *  0.0000000    1.2238349 *
  10 O       4.1148715    3.5797117    2.4089167 *  1.2238349 *  0.0000000  
  11 H       2.4903766 *  3.3573319    4.3167274    4.7131609    5.8393871  
  12 H       2.3536544 *  2.3815490 *  3.0153290    3.5952600    4.6094144  
  13 H       3.2997769    4.3792913    4.8159486    4.4137693    5.2993009  
  14 H       4.0291913    4.5578368    4.2874868    3.2820801    3.6634599  
  15 H       3.3910123    3.3630342    2.9545464 *  2.3821769 *  2.8830217 *
  16 H       3.3681314    3.8901085    3.4959037    2.2021553 *  2.6380430 *
  17 H       2.1482121 *  3.4409800    3.9074207    3.4721782    4.4774826  
  18 H       1.0856767 *  2.1917763 *  3.3677447    3.9363961    5.1552848  
  19 H       2.2199941 *  1.0845688 *  2.0960027 *  3.4652204    4.4952225  
  20 H       3.4716616    2.1039979 *  1.0820794 *  2.2202001 *  2.6682382 *

               11 H         12 H         13 H         14 H         15 H     

   1 C       1.0850607 *  1.0831264 *  2.1255709 *  3.3888090    2.7332224 *
   2 C       2.1326690 *  2.1306350 *  1.0838609 *  2.1362283 *  2.1286995 *
   3 C       3.3855263    2.7465108 *  2.1248289 *  1.0847306 *  1.0835499 *
   4 C       4.0430715    3.4900793    3.2632528    2.4672394 *  2.3783029 *
   5 C       3.3385920    3.2822629    3.0959075    3.3642388    3.2597955  
   6 C       2.4903766 *  2.3536544 *  3.2997769    4.0291913    3.3910123  
   7 C       3.3573319    2.3815490 *  4.3792913    4.5578368    3.3630342  
   8 C       4.3167274    3.0153290    4.8159486    4.2874868    2.9545464 *
   9 C       4.7131609    3.5952600    4.4137693    3.2820801    2.3821769 *
  10 O       5.8393871    4.6094144    5.2993009    3.6634599    2.8830217 *
  11 H       0.0000000    1.8049815 *  2.4244354 *  4.2551108    3.7899232  
  12 H       1.8049815 *  0.0000000    3.0575078    3.7976722    2.6175104 *
  13 H       2.4244354 *  3.0575078    0.0000000    2.4331239 *  3.0586740  
  14 H       4.2551108    3.7976722    2.4331239 *  0.0000000    1.8042508 *
  15 H       3.7899232    2.6175104 *  3.0586740    1.8042508 *  0.0000000  
  16 H       4.9009907    4.4854989    3.6566765    2.4587697 *  2.9703870 *
  17 H       3.6072302    4.0188391    3.0609063    3.6955018    4.0332647  
  18 H       2.4669501 *  2.8941416 *  3.7428792    4.9287925    4.3973077  
  19 H       3.5942414    2.6730214 *  5.1040384    5.5191848    4.2111603  
  20 H       5.1709009    3.6947434    5.7962499    5.1048354    3.6092030  

               16 H         17 H         18 H         19 H         20 H     

   1 C       4.0505124    3.2348063    2.4525801 *  3.1719141    4.3100774  
   2 C       3.3670329    3.0988827    3.3918043    4.2734384    4.8157808  
   3 C       2.4705755 *  3.2736303    4.0362960    4.4738217    4.2646808  
   4 C       1.0861745 *  2.1471010 *  3.3681652    3.9141147    3.5368522  
   5 C       2.1363519 *  1.0831633 *  2.1381939 *  3.4068463    3.8999552  
   6 C       3.3681314    2.1482121 *  1.0856767 *  2.2199941 *  3.4716616  
   7 C       3.8901085    3.4409800    2.1917763 *  1.0845688 *  2.1039979 *
   8 C       3.4959037    3.9074207    3.3677447    2.0960027 *  1.0820794 *
   9 C       2.2021553 *  3.4721782    3.9363961    3.4652204    2.2202001 *
  10 O       2.6380430 *  4.4774826    5.1552848    4.4952225    2.6682382 *
  11 H       4.9009907    3.6072302    2.4669501 *  3.5942414    5.1709009  
  12 H       4.4854989    4.0188391    2.8941416 *  2.6730214 *  3.6947434  
  13 H       3.6566765    3.0609063    3.7428792    5.1040384    5.7962499  
  14 H       2.4587697 *  3.6955018    4.9287925    5.5191848    5.1048354  
  15 H       2.9703870 *  4.0332647    4.3973077    4.2111603    3.6092030  
  16 H       0.0000000    2.4616233 *  4.2578220    4.9713841    4.3822483  
  17 H       2.4616233 *  0.0000000    2.4680004 *  4.2937110    4.9714329  
  18 H       4.2578220    2.4680004 *  0.0000000    2.4708667 *  4.2726535  
  19 H       4.9713841    4.2937110    2.4708667 *  0.0000000    2.4562566 *
  20 H       4.3822483    4.9714329    4.2726535    2.4562566 *  0.0000000  

  * ... LESS THAN  3.000


     ATOMIC BASIS SET
     ----------------
 THE CONTRACTED PRIMITIVE FUNCTIONS HAVE BEEN UNNORMALIZED
 THE CONTRACTED BASIS FUNCTIONS ARE NOW NORMALIZED TO UNITY

  SHELL TYPE  PRIMITIVE        EXPONENT          CONTRACTION COEFFICIENT(S)

 C         

      1   S       1            71.6168373    0.154328967295
      1   S       2            13.0450963    0.535328142282
      1   S       3             3.5305122    0.444634542185

      2   L       4             2.9412494   -0.099967229187    0.155916274999
      2   L       5             0.6834831    0.399512826089    0.607683718598
      2   L       6             0.2222899    0.700115468880    0.391957393099

 C         

      3   S       7            71.6168373    0.154328967295
      3   S       8            13.0450963    0.535328142282
      3   S       9             3.5305122    0.444634542185

      4   L      10             2.9412494   -0.099967229187    0.155916274999
      4   L      11             0.6834831    0.399512826089    0.607683718598
      4   L      12             0.2222899    0.700115468880    0.391957393099

 C         

      5   S      13            71.6168373    0.154328967295
      5   S      14            13.0450963    0.535328142282
      5   S      15             3.5305122    0.444634542185

      6   L      16             2.9412494   -0.099967229187    0.155916274999
      6   L      17             0.6834831    0.399512826089    0.607683718598
      6   L      18             0.2222899    0.700115468880    0.391957393099

 C         

      7   S      19            71.6168373    0.154328967295
      7   S      20            13.0450963    0.535328142282
      7   S      21             3.5305122    0.444634542185

      8   L      22             2.9412494   -0.099967229187    0.155916274999
      8   L      23             0.6834831    0.399512826089    0.607683718598
      8   L      24             0.2222899    0.700115468880    0.391957393099

 C         

      9   S      25            71.6168373    0.154328967295
      9   S      26            13.0450963    0.535328142282
      9   S      27             3.5305122    0.444634542185

     10   L      28             2.9412494   -0.099967229187    0.155916274999
     10   L      29             0.6834831    0.399512826089    0.607683718598
     10   L      30             0.2222899    0.700115468880    0.391957393099

 C         

     11   S      31            71.6168373    0.154328967295
     11   S      32            13.0450963    0.535328142282
     11   S      33             3.5305122    0.444634542185

     12   L      34             2.9412494   -0.099967229187    0.155916274999
     12   L      35             0.6834831    0.399512826089    0.607683718598
     12   L      36             0.2222899    0.700115468880    0.391957393099

 C         

     13   S      37            71.6168373    0.154328967295
     13   S      38            13.0450963    0.535328142282
     13   S      39             3.5305122    0.444634542185

     14   L      40             2.9412494   -0.099967229187    0.155916274999
     14   L      41             0.6834831    0.399512826089    0.607683718598
     14   L      42             0.2222899    0.700115468880    0.391957393099

 C         

     15   S      43            71.6168373    0.154328967295
     15   S      44            13.0450963    0.535328142282
     15   S      45             3.5305122    0.444634542185

     16   L      46             2.9412494   -0.099967229187    0.155916274999
     16   L      47             0.6834831    0.399512826089    0.607683718598
     16   L      48             0.2222899    0.700115468880    0.391957393099

 C         

     17   S      49            71.6168373    0.154328967295
     17   S      50            13.0450963    0.535328142282
     17   S      51             3.5305122    0.444634542185

     18   L      52             2.9412494   -0.099967229187    0.155916274999
     18   L      53             0.6834831    0.399512826089    0.607683718598
     18   L      54             0.2222899    0.700115468880    0.391957393099

 O         

     19   S      55           130.7093214    0.154328967295
     19   S      56            23.8088661    0.535328142282
     19   S      57             6.4436083    0.444634542185

     20   L      58             5.0331513   -0.099967229187    0.155916274999
     20   L      59             1.1695961    0.399512826089    0.607683718598
     20   L      60             0.3803890    0.700115468880    0.391957393099

 H         

     21   S      61             3.4252509    0.154328967295
     21   S      62             0.6239137    0.535328142282
     21   S      63             0.1688554    0.444634542185

 H         

     22   S      64             3.4252509    0.154328967295
     22   S      65             0.6239137    0.535328142282
     22   S      66             0.1688554    0.444634542185

 H         

     23   S      67             3.4252509    0.154328967295
     23   S      68             0.6239137    0.535328142282
     23   S      69             0.1688554    0.444634542185

 H         

     24   S      70             3.4252509    0.154328967295
     24   S      71             0.6239137    0.535328142282
     24   S      72             0.1688554    0.444634542185

 H         

     25   S      73             3.4252509    0.154328967295
     25   S      74             0.6239137    0.535328142282
     25   S      75             0.1688554    0.444634542185

 H         

     26   S      76             3.4252509    0.154328967295
     26   S      77             0.6239137    0.535328142282
     26   S      78             0.1688554    0.444634542185

 H         

     27   S      79             3.4252509    0.154328967295
     27   S      80             0.6239137    0.535328142282
     27   S      81             0.1688554    0.444634542185

 H         

     28   S      82             3.4252509    0.154328967295
     28   S      83             0.6239137    0.535328142282
     28   S      84             0.1688554    0.444634542185

 H         

     29   S      85             3.4252509    0.154328967295
     29   S      86             0.6239137    0.535328142282
     29   S      87             0.1688554    0.444634542185

 H         

     30   S      88             3.4252509    0.154328967295
     30   S      89             0.6239137    0.535328142282
     30   S      90             0.1688554    0.444634542185

 TOTAL NUMBER OF BASIS SET SHELLS             =   30
 NUMBER OF CARTESIAN GAUSSIAN BASIS FUNCTIONS =   60
 NUMBER OF ELECTRONS                          =   72
 CHARGE OF MOLECULE                           =    0
 SPIN MULTIPLICITY                            =    1
 NUMBER OF OCCUPIED ORBITALS (ALPHA)          =   36
 NUMBER OF OCCUPIED ORBITALS (BETA )          =   36
 TOTAL NUMBER OF ATOMS                        =   20
 THE NUCLEAR REPULSION ENERGY IS      509.6734063592

     $CONTRL OPTIONS
     ---------------
 SCFTYP=RHF          RUNTYP=SADPOINT     EXETYP=RUN     
 MPLEVL=       0     CITYP =NONE         CCTYP =NONE         VBTYP =NONE    
 DFTTYP=NONE         TDDFT =NONE    
 MULT  =       1     ICHARG=       0     NZVAR =       0     COORD =UNIQUE  
 PP    =NONE         RELWFN=NONE         LOCAL =NONE         NUMGRD=       F
 ISPHER=      -1     NOSYM =       0     MAXIT =      30     UNITS =ANGS    
 PLTORB=       F     MOLPLT=       F     AIMPAC=       F     FRIEND=        
 NPRINT=       7     IREST =       0     GEOM  =INPUT   
 NORMF =       0     NORMP =       0     ITOL  =      20     ICUT  =       9
 INTTYP=BEST         GRDTYP=BEST         QMTTOL= 1.0E-06

     $SYSTEM OPTIONS
     ---------------
  REPLICATED MEMORY=     1000000 WORDS (ON EVERY NODE).
 DISTRIBUTED MEMDDI=           0 MILLION WORDS IN AGGREGATE,
 MEMDDI DISTRIBUTED OVER   1 PROCESSORS IS           0 WORDS/PROCESSOR.
 TOTAL MEMORY REQUESTED ON EACH PROCESSOR=     1000000 WORDS.
 TIMLIM=      525600.00 MINUTES, OR     365.0 DAYS.
 PARALL= F  BALTYP=  DLB     KDIAG=    0  COREFL= F
 MXSEQ2=     300 MXSEQ3=     150  mem10=         0

          ----------------
          PROPERTIES INPUT
          ----------------

     MOMENTS            FIELD           POTENTIAL          DENSITY
 IEMOM =       1   IEFLD =       0   IEPOT =       0   IEDEN =       0
 WHERE =COMASS     WHERE =NUCLEI     WHERE =NUCLEI     WHERE =NUCLEI  
 OUTPUT=BOTH       OUTPUT=BOTH       OUTPUT=BOTH       OUTPUT=BOTH    
 IEMINT=       0   IEFINT=       0                     IEDINT=       0
                                                       MORB  =       0
          EXTRAPOLATION IN EFFECT
          SOSCF IN EFFECT
 ORBITAL PRINTING OPTION: NPREO=     1    60     2     1

     -------------------------------
     INTEGRAL TRANSFORMATION OPTIONS
     -------------------------------
     NWORD  =            0
     CUTOFF = 1.0E-09     MPTRAN =       0
     DIRTRF =       F     AOINTS =DUP     

          ----------------------
          INTEGRAL INPUT OPTIONS
          ----------------------
 NOPK  =       1 NORDER=       0 SCHWRZ=       T

     ------------------------------------------
     THE POINT GROUP IS C1 , NAXIS= 0, ORDER= 1
     ------------------------------------------

     DIMENSIONS OF THE SYMMETRY SUBSPACES ARE
 A   =   60

 ..... DONE SETTING UP THE RUN .....
 STEP CPU TIME =     0.06 TOTAL CPU TIME =          0.1 (      0.0 MIN)
 TOTAL WALL CLOCK TIME=          0.3 SECONDS, CPU UTILIZATION IS    22.22%


          -----------------------------
          STATIONARY POINT LOCATION RUN
          -----------------------------

 OBTAINING INITIAL HESSIAN, HESS=CALC    

     ---------------------------------
     HESSIAN MATRIX CONTROL PARAMETERS
     ---------------------------------
     METHOD=ANALYTIC   NVIB  =       2   VIBSIZ= 0.01000
     RDHESS=       F   PURIFY=       F   PRTIFC=       F
     VIBANL=       F   DECOMP=       F   PROJCT=       F
     SCLFAC= 1.00000   PRTSCN=       F   NPRT  =       0
     PULCOR=       F   NPUN  =       0   REDOVB=       T
     HSSTYP=GENERAL 
 Old integral subroutine is used

     ------------------------------
     CPHF RESPONSE SOLUTION OPTIONS
     ------------------------------
     POLAR  =       F     NWORD  =       0
     CPHF   =AO      

          ********************
          1 ELECTRON INTEGRALS
          ********************
 ...... END OF ONE-ELECTRON INTEGRALS ......
 STEP CPU TIME =     0.02 TOTAL CPU TIME =          0.1 (      0.0 MIN)
 TOTAL WALL CLOCK TIME=          0.3 SECONDS, CPU UTILIZATION IS    26.67%

          -------------
          GUESS OPTIONS
          -------------
          GUESS =HUCKEL            NORB  =       0          NORDER=       0
          MIX   =       F          PRTMO =       F          PUNMO =       F
          TOLZ  = 1.0E-08          TOLE  = 1.0E-05
          SYMDEN=       F          PURIFY=       F

 INITIAL GUESS ORBITALS GENERATED BY HUCKEL   ROUTINE.
 HUCKEL GUESS REQUIRES     53820 WORDS.

 SYMMETRIES FOR INITIAL GUESS ORBITALS FOLLOW.   BOTH SET(S).
    36 ORBITALS ARE OCCUPIED (   10 CORE ORBITALS).
    11=A       12=A       13=A       14=A       15=A       16=A       17=A   
    18=A       19=A       20=A       21=A       22=A       23=A       24=A   
    25=A       26=A       27=A       28=A       29=A       30=A       31=A   
    32=A       33=A       34=A       35=A       36=A       37=A       38=A   
    39=A       40=A       41=A       42=A       43=A       44=A       45=A   
    46=A   
 ...... END OF INITIAL ORBITAL SELECTION ......
 STEP CPU TIME =     0.02 TOTAL CPU TIME =          0.1 (      0.0 MIN)
 TOTAL WALL CLOCK TIME=          0.3 SECONDS, CPU UTILIZATION IS    31.25%

                    ----------------------
                    AO INTEGRAL TECHNOLOGY
                    ----------------------
     S,P,L SHELL ROTATED AXIS INTEGRALS, REPROGRAMMED BY
        KAZUYA ISHIMURA (IMS) AND JOSE SIERRA (SYNSTAR).
     S,P,D,L SHELL ROTATED AXIS INTEGRALS PROGRAMMED BY
        KAZUYA ISHIMURA (INSTITUTE FOR MOLECULAR SCIENCE).
     S,P,D,F,G SHELL TO TOTAL QUARTET ANGULAR MOMENTUM SUM 5,
        ERIC PROGRAM BY GRAHAM FLETCHER (ELORET AND NASA ADVANCED
        SUPERCOMPUTING DIVISION, AMES RESEARCH CENTER).
     S,P,D,F,G,L SHELL GENERAL RYS QUADRATURE PROGRAMMED BY
        MICHEL DUPUIS (PACIFIC NORTHWEST NATIONAL LABORATORY).

          --------------------
          2 ELECTRON INTEGRALS
          --------------------

 THE -PK- OPTION IS OFF, THE INTEGRALS ARE NOT IN SUPERMATRIX FORM.
 STORING   15000 INTEGRALS/RECORD ON DISK, USING 12 BYTES/INTEGRAL.
 TWO ELECTRON INTEGRAL EVALUATION REQUIRES   89821 WORDS OF MEMORY.
 SCHWARZ INEQUALITY OVERHEAD:      1797 INTEGRALS, T=        0.00
 II,JST,KST,LST =  1  1  1  1 NREC =         1 INTLOC =    1
 II,JST,KST,LST =  2  1  1  1 NREC =         1 INTLOC =    2
 II,JST,KST,LST =  3  1  1  1 NREC =         1 INTLOC =   34
 II,JST,KST,LST =  4  1  1  1 NREC =         1 INTLOC =  144
 II,JST,KST,LST =  5  1  1  1 NREC =         1 INTLOC = 1366
 II,JST,KST,LST =  6  1  1  1 NREC =         1 INTLOC = 1964
 II,JST,KST,LST =  7  1  1  1 NREC =         1 INTLOC = 6868
 II,JST,KST,LST =  8  1  1  1 NREC =         1 INTLOC = 8488
 II,JST,KST,LST =  9  1  1  1 NREC =         2 INTLOC = 5902
 II,JST,KST,LST = 10  1  1  1 NREC =         2 INTLOC = 9694
 II,JST,KST,LST = 11  1  1  1 NREC =         4 INTLOC = 5068
 II,JST,KST,LST = 12  1  1  1 NREC =         4 INTLOC =12185
 II,JST,KST,LST = 13  1  1  1 NREC =         7 INTLOC =12333
 II,JST,KST,LST = 14  1  1  1 NREC =         8 INTLOC = 8775
 II,JST,KST,LST = 15  1  1  1 NREC =        13 INTLOC = 6231
 II,JST,KST,LST = 16  1  1  1 NREC =        14 INTLOC = 8941
 II,JST,KST,LST = 17  1  1  1 NREC =        21 INTLOC =13328
 II,JST,KST,LST = 18  1  1  1 NREC =        23 INTLOC = 9491
 II,JST,KST,LST = 19  1  1  1 NREC =        34 INTLOC = 2625
 II,JST,KST,LST = 20  1  1  1 NREC =        35 INTLOC =13694
 II,JST,KST,LST = 21  1  1  1 NREC =        48 INTLOC = 3718
 II,JST,KST,LST = 22  1  1  1 NREC =        51 INTLOC =14716
 II,JST,KST,LST = 23  1  1  1 NREC =        56 INTLOC = 4013
 II,JST,KST,LST = 24  1  1  1 NREC =        60 INTLOC = 8479
 II,JST,KST,LST = 25  1  1  1 NREC =        65 INTLOC = 4968
 II,JST,KST,LST = 26  1  1  1 NREC =        70 INTLOC = 8430
 II,JST,KST,LST = 27  1  1  1 NREC =        76 INTLOC =  472
 II,JST,KST,LST = 28  1  1  1 NREC =        81 INTLOC =10906
 II,JST,KST,LST = 29  1  1  1 NREC =        87 INTLOC = 9199
 II,JST,KST,LST = 30  1  1  1 NREC =        93 INTLOC =12118
 SCHWARZ INEQUALITY TEST SKIPPED       24259 INTEGRAL BLOCKS.
 TOTAL NUMBER OF NONZERO TWO-ELECTRON INTEGRALS =             1490276
        100 INTEGRAL RECORDS WERE STORED ON DISK FILE  8.
  ...... END OF TWO-ELECTRON INTEGRALS .....
 STEP CPU TIME =     0.35 TOTAL CPU TIME =          0.5 (      0.0 MIN)
 TOTAL WALL CLOCK TIME=          0.7 SECONDS, CPU UTILIZATION IS    68.18%

          --------------------------
                 RHF SCF CALCULATION
          --------------------------

     NUCLEAR ENERGY =       509.6734063592
     MAXIT =   30     NPUNCH=    2
     EXTRAP=T  DAMP=F  SHIFT=F  RSTRCT=F  DIIS=F  DEM=F  SOSCF=T
     DENSITY MATRIX CONV=  1.00E-05
     SOSCF WILL OPTIMIZE     864 ORBITAL ROTATIONS, SOGTOL=   0.250
     MEMORY REQUIRED FOR RHF ITERS=     59496 WORDS.

 ITER EX DEM     TOTAL ENERGY        E CHANGE  DENSITY CHANGE     ORB. GRAD
   1  0  0     -415.5233185285  -415.5233185285   0.524937150   0.000000000
          ---------------START SECOND ORDER SCF---------------
   2  1  0     -416.0288469315    -0.5055284030   0.275689539   0.064718671
   3  2  0     -416.0582519963    -0.0294050649   0.137728757   0.049268501
   4  3  0     -416.0921771602    -0.0339251639   0.018372486   0.007298078
   5  4  0     -416.0930434356    -0.0008662754   0.004865726   0.002939043
   6  5  0     -416.0931515125    -0.0001080768   0.001745159   0.000763355
   7  6  0     -416.0931640495    -0.0000125371   0.000645608   0.000261623
   8  7  0     -416.0931659037    -0.0000018542   0.000258950   0.000073017
   9  8  0     -416.0931660812    -0.0000001775   0.000129554   0.000023570
  10  9  0     -416.0931661130    -0.0000000318   0.000048079   0.000011426
  11 10  0     -416.0931661181    -0.0000000051   0.000022960   0.000003473
  12 11  0     -416.0931661190    -0.0000000010   0.000006816   0.000001377
  13 12  0     -416.0931661191    -0.0000000001   0.000003429   0.000000513

          -----------------
          DENSITY CONVERGED
          -----------------
     TIME TO FORM FOCK OPERATORS=       0.3 SECONDS (       0.0 SEC/ITER)
     TIME TO SOLVE SCF EQUATIONS=       0.0 SECONDS (       0.0 SEC/ITER)

 FINAL RHF ENERGY IS     -416.0931661191 AFTER  13 ITERATIONS

          ------------
          EIGENVECTORS
          ------------

                      1          2          3          4          5
                  -20.2612   -11.1181   -11.0543   -11.0493   -11.0456
                     A          A          A          A          A   
    1  C  1  S   -0.000000   0.000023  -0.030492  -0.005698  -0.083805
    2  C  1  S    0.000003  -0.000004  -0.003830   0.000016  -0.002940
    3  C  1  X    0.000000   0.000010  -0.001291  -0.000080   0.000076
    4  C  1  Y   -0.000003   0.000011   0.000375   0.000002  -0.000146
    5  C  1  Z   -0.000000   0.000003  -0.002069  -0.000298   0.000009
    6  C  2  S   -0.000000   0.000015  -0.000572   0.000062   0.003856
    7  C  2  S    0.000010  -0.000030   0.000351   0.000059  -0.006055
    8  C  2  X   -0.000007   0.000057   0.000227   0.000050   0.000649
    9  C  2  Y    0.000004  -0.000023  -0.000079   0.000025  -0.003748
   10  C  2  Z    0.000005  -0.000012  -0.000038   0.000025  -0.002607
   11  C  3  S   -0.000005  -0.000222  -0.000699   0.000653   0.958870
   12  C  3  S   -0.000000   0.000304  -0.000021   0.000046   0.035533
   13  C  3  X    0.000017  -0.000118  -0.000070   0.000001  -0.000153
   14  C  3  Y    0.000018   0.000067   0.000033   0.000023  -0.000242
   15  C  3  Z    0.000039  -0.000233  -0.000003   0.000015  -0.000952
   16  C  4  S   -0.000024  -0.001607  -0.004049  -0.005413  -0.239854
   17  C  4  S    0.000270  -0.005398  -0.000068  -0.000229  -0.011259
   18  C  4  X   -0.000155  -0.002631  -0.000099  -0.000149   0.000997
   19  C  4  Y    0.000363  -0.003055  -0.000007   0.000016  -0.000207
   20  C  4  Z    0.000269   0.000049   0.000163   0.000094   0.001775
   21  C  5  S    0.000004  -0.000277   0.003952  -0.001148  -0.002006
   22  C  5  S    0.000033   0.000070  -0.006881  -0.000015   0.001792
   23  C  5  X   -0.000071  -0.000020  -0.002988  -0.000137  -0.000419
   24  C  5  Y   -0.000012  -0.000009   0.000709  -0.000037   0.001117
   25  C  5  Z    0.000005  -0.000018   0.003380   0.000020   0.000180
   26  C  6  S    0.000003  -0.000254   0.991336   0.024239  -0.003021
   27  C  6  S    0.000007  -0.000064   0.036233  -0.004858   0.000112
   28  C  6  X    0.000016  -0.000018   0.000447  -0.002804  -0.000096
   29  C  6  Y   -0.000037  -0.000101   0.000251  -0.003043   0.000023
   30  C  6  Z   -0.000009  -0.000037   0.001669   0.000327  -0.000153
   31  C  7  S    0.000005  -0.000272  -0.023443   0.991729  -0.002387
   32  C  7  S    0.000054   0.000111  -0.006871   0.035857  -0.000057
   33  C  7  X    0.000059  -0.000079   0.002944  -0.000220  -0.000042
   34  C  7  Y    0.000047  -0.000034   0.003079   0.001545  -0.000002
   35  C  7  Z   -0.000014   0.000028  -0.000697   0.000606   0.000025
   36  C  8  S   -0.000025  -0.001005  -0.001146   0.019706   0.000524
   37  C  8  S    0.000270  -0.005689   0.000345  -0.007398   0.000039
   38  C  8  X    0.000057   0.003290  -0.000065  -0.000529  -0.000039
   39  C  8  Y    0.000483  -0.001122  -0.000173   0.004134   0.000011
   40  C  8  Z    0.000164  -0.002220   0.000013   0.001868  -0.000034
   41  C  9  S    0.000548   0.992564   0.000267   0.000342  -0.000394
   42  C  9  S   -0.007195   0.032729  -0.000008   0.000149   0.001517
   43  C  9  X    0.000890   0.000019  -0.000059  -0.000003  -0.000727
   44  C  9  Y   -0.005692   0.000424   0.000096   0.000142  -0.000792
   45  C  9  Z   -0.002746   0.000030   0.000089   0.000055   0.000103
   46  O 10  S    0.994267   0.000162   0.000005   0.000013  -0.000003
   47  O 10  S    0.025993  -0.005790  -0.000052  -0.000115  -0.000030
   48  O 10  X    0.000780  -0.000250  -0.000001  -0.000025   0.000012
   49  O 10  Y   -0.005000   0.001530   0.000033   0.000049   0.000037
   50  O 10  Z   -0.002424   0.000760   0.000009   0.000033  -0.000035
   51  H 11  S   -0.000002   0.000002   0.000358  -0.000012   0.000486
   52  H 12  S   -0.000002   0.000006   0.000363  -0.000951   0.000554
   53  H 13  S   -0.000002   0.000006  -0.000001   0.000001   0.000038
   54  H 14  S   -0.000006  -0.000035  -0.000017  -0.000014  -0.006698
   55  H 15  S    0.000080  -0.001059   0.000005  -0.000042  -0.006738
   56  H 16  S   -0.000179  -0.000014  -0.000090  -0.000023   0.001817
   57  H 17  S   -0.000020  -0.000052   0.000080  -0.000080  -0.000014
   58  H 18  S   -0.000016  -0.000026  -0.006924  -0.000128   0.000018
   59  H 19  S   -0.000021  -0.000038   0.000241  -0.006826   0.000025
   60  H 20  S   -0.000192   0.000012  -0.000037   0.000011   0.000014

                      6          7          8          9         10
                  -11.0452   -11.0444   -11.0258   -11.0184   -11.0121
                     A          A          A          A          A   
    1  C  1  S    0.988004   0.016897  -0.000217   0.000974  -0.003467
    2  C  1  S    0.035882   0.000648   0.000047   0.000289  -0.007236
    3  C  1  X   -0.001187  -0.000046   0.000041  -0.000014   0.004103
    4  C  1  Y    0.000611  -0.000039   0.000017   0.000050  -0.001472
    5  C  1  Z   -0.001013  -0.000095  -0.000031  -0.000080  -0.001592
    6  C  2  S    0.004583   0.000517   0.000105  -0.018463   0.991933
    7  C  2  S   -0.007338  -0.001670   0.000028  -0.001166   0.036727
    8  C  2  X   -0.003964   0.000021   0.000003  -0.000320   0.001519
    9  C  2  Y    0.001160  -0.000821  -0.000004   0.000200  -0.000314
   10  C  2  Z    0.001314  -0.000515   0.000009  -0.000599   0.002020
   11  C  3  S    0.077220   0.242966  -0.000271   0.000890  -0.003415
   12  C  3  S    0.003022   0.006205   0.000087   0.000298  -0.007231
   13  C  3  X   -0.000130  -0.001387   0.000010  -0.000029  -0.000346
   14  C  3  Y    0.000004   0.000542   0.000080   0.000029   0.003843
   15  C  3  Z   -0.000033  -0.002382  -0.000004  -0.000060   0.002574
   16  C  4  S   -0.036943   0.961982   0.001491  -0.004608   0.000545
   17  C  4  S   -0.001521   0.034107   0.000248  -0.007296   0.000019
   18  C  4  X    0.000050   0.001382  -0.000003  -0.001534  -0.000024
   19  C  4  Y   -0.000013  -0.001074   0.000012   0.004283   0.000143
   20  C  4  Z    0.000179   0.001497   0.000065   0.000718   0.000072
   21  C  5  S   -0.001014   0.005024  -0.004280   0.991918   0.018702
   22  C  5  S    0.000147  -0.006690  -0.000268   0.036682   0.000198
   23  C  5  X   -0.000091   0.001509  -0.000142  -0.000838   0.000375
   24  C  5  Y    0.000174  -0.004069  -0.000168   0.001012  -0.000065
   25  C  5  Z    0.000052  -0.000735   0.000034  -0.002087   0.000490
   26  C  6  S    0.031291   0.004835   0.000710  -0.003142   0.000405
   27  C  6  S   -0.001561   0.000170   0.000406  -0.007218   0.000020
   28  C  6  X    0.001410   0.000100   0.000155   0.003012   0.000125
   29  C  6  Y   -0.000392  -0.000216   0.000030  -0.000636  -0.000057
   30  C  6  Z    0.002085   0.000070  -0.000023  -0.003415  -0.000079
   31  C  7  S    0.004719   0.005150  -0.019187   0.001213  -0.000076
   32  C  7  S    0.000131   0.000116  -0.008919   0.000147   0.000008
   33  C  7  X    0.000028   0.000156   0.000530   0.000038  -0.000029
   34  C  7  Y    0.000036  -0.000036  -0.004259  -0.000067   0.000030
   35  C  7  Z   -0.000066  -0.000070  -0.001931  -0.000165  -0.000020
   36  C  8  S    0.000343  -0.001221   0.991968   0.004375  -0.000031
   37  C  8  S    0.000019   0.000065   0.036541   0.000092  -0.000014
   38  C  8  X   -0.000011   0.000021   0.000103   0.000101   0.000001
   39  C  8  Y    0.000002   0.000036  -0.001785   0.000143   0.000004
   40  C  8  Z   -0.000023   0.000026  -0.000651  -0.000095  -0.000001
   41  C  9  S   -0.000094   0.002579   0.001994   0.000339  -0.000013
   42  C  9  S    0.000235  -0.005469  -0.005878   0.000129  -0.000010
   43  C  9  X   -0.000114   0.002687  -0.003421  -0.000127   0.000007
   44  C  9  Y   -0.000119   0.003026   0.000990   0.000104  -0.000000
   45  C  9  Z    0.000014  -0.000426   0.002202  -0.000013  -0.000049
   46  O 10  S    0.000001  -0.000022  -0.000022   0.000009   0.000000
   47  O 10  S   -0.000010   0.000244   0.000249  -0.000084   0.000005
   48  O 10  X    0.000002  -0.000138   0.000175   0.000022   0.000005
   49  O 10  Y    0.000010  -0.000181  -0.000067   0.000035  -0.000005
   50  O 10  Z   -0.000005   0.000023  -0.000119   0.000031   0.000004
   51  H 11  S   -0.006894  -0.000160  -0.000010  -0.000031   0.000107
   52  H 12  S   -0.006912  -0.000132  -0.000105  -0.000057   0.000014
   53  H 13  S    0.000051   0.000009  -0.000004   0.000141  -0.007002
   54  H 14  S   -0.000649  -0.001561  -0.000018  -0.000040   0.000105
   55  H 15  S   -0.000594  -0.001563  -0.000210  -0.000044   0.000020
   56  H 16  S    0.000250  -0.006696  -0.000099   0.000120  -0.000032
   57  H 17  S   -0.000001   0.000068  -0.000031  -0.006920  -0.000118
   58  H 18  S   -0.000085  -0.000155  -0.000094   0.000106  -0.000042
   59  H 19  S    0.000012  -0.000092   0.000266  -0.000106  -0.000003
   60  H 20  S   -0.000002  -0.000067  -0.006868  -0.000089   0.000001

                     11         12         13         14         15
                   -1.3129    -1.0917    -1.0182    -0.9718    -0.9334
                     A          A          A          A          A   
    1  C  1  S   -0.000703  -0.056425  -0.102746   0.069565  -0.076329
    2  C  1  S    0.001711   0.149980   0.276500  -0.191480   0.218999
    3  C  1  X   -0.000064  -0.012214  -0.074753   0.030189   0.021399
    4  C  1  Y    0.000278   0.011853   0.030232  -0.018615  -0.015279
    5  C  1  Z    0.000446   0.023880   0.015745   0.003217   0.007715
    6  C  2  S   -0.001044  -0.058414  -0.147817   0.066223   0.012174
    7  C  2  S    0.002308   0.145763   0.383140  -0.175414  -0.032722
    8  C  2  X    0.000431   0.028943   0.048663  -0.032998   0.050892
    9  C  2  Y    0.000586   0.008386   0.026144   0.005159  -0.067381
   10  C  2  Z    0.000783   0.016190   0.029134   0.010240  -0.049154
   11  C  3  S   -0.003134  -0.051102  -0.114854   0.018421   0.091594
   12  C  3  S    0.007674   0.135733   0.310147  -0.047011  -0.260650
   13  C  3  X    0.002054   0.014896   0.005794   0.007204  -0.001049
   14  C  3  Y    0.000659  -0.024704  -0.059026   0.021630  -0.004496
   15  C  3  Z    0.001553  -0.006221  -0.050248   0.047219  -0.005701
   16  C  4  S   -0.021439  -0.087679  -0.008637  -0.125935   0.084112
   17  C  4  S    0.053622   0.230009   0.026259   0.348098  -0.241706
   18  C  4  X    0.018484   0.035991  -0.028810   0.028909  -0.009229
   19  C  4  Y    0.020001  -0.038897   0.000371  -0.068539  -0.055721
   20  C  4  Z   -0.000886  -0.020994  -0.014848   0.009173   0.002241
   21  C  5  S   -0.005571  -0.108609   0.008436  -0.128283  -0.047923
   22  C  5  S    0.012749   0.273118  -0.021871   0.342557   0.130754
   23  C  5  X   -0.000214   0.019905  -0.025307  -0.027767   0.066233
   24  C  5  Y    0.005886   0.042805   0.001065   0.061884  -0.076716
   25  C  5  Z   -0.000311  -0.046057   0.003819  -0.001683  -0.075107
   26  C  6  S   -0.003225  -0.112734   0.031042  -0.020129  -0.131094
   27  C  6  S    0.007685   0.297010  -0.082813   0.051530   0.372695
   28  C  6  X   -0.000219  -0.011410  -0.041499  -0.075375  -0.011773
   29  C  6  Y    0.002464   0.044587  -0.028165  -0.024346  -0.019588
   30  C  6  Z    0.001547   0.034162  -0.020256   0.076073   0.013910
   31  C  7  S   -0.006025  -0.103318   0.093462   0.105314  -0.008341
   32  C  7  S    0.014334   0.263305  -0.245724  -0.283105   0.026821
   33  C  7  X   -0.002436  -0.045558   0.012449  -0.010008  -0.035660
   34  C  7  Y    0.005441   0.014559  -0.047392  -0.077184  -0.122038
   35  C  7  Z    0.003339   0.027911  -0.031163  -0.015550  -0.028841
   36  C  8  S   -0.021743  -0.081432   0.091461   0.105537   0.086806
   37  C  8  S    0.052869   0.204539  -0.237294  -0.279880  -0.235736
   38  C  8  X   -0.022963  -0.016402   0.001453  -0.022581   0.028954
   39  C  8  Y    0.005638  -0.059345   0.056820   0.059475  -0.003614
   40  C  8  Z    0.014394  -0.014837   0.017585   0.038859  -0.015217
   41  C  9  S   -0.127581  -0.035758   0.022140  -0.008437   0.070171
   42  C  9  S    0.295700   0.099323  -0.063441   0.023609  -0.207175
   43  C  9  X   -0.022060   0.009298  -0.045995  -0.086862  -0.009468
   44  C  9  Y    0.137146  -0.082134   0.029356  -0.047400   0.107821
   45  C  9  Z    0.065606  -0.039766   0.028864   0.032088   0.057612
   46  O 10  S   -0.214497   0.038236  -0.015263   0.006390  -0.049564
   47  O 10  S    0.749419  -0.142699   0.058507  -0.024980   0.198102
   48  O 10  X    0.022850  -0.001977  -0.009512  -0.021987   0.000377
   49  O 10  Y   -0.147842   0.005705  -0.000477  -0.010270   0.021741
   50  O 10  Z   -0.072038   0.003044   0.002367   0.009455   0.012007
   51  H 11  S    0.000185   0.028696   0.060141  -0.048130   0.070683
   52  H 12  S    0.000422   0.037079   0.059985  -0.057593   0.064812
   53  H 13  S    0.000306   0.028996   0.087660  -0.042344  -0.008031
   54  H 14  S    0.001284   0.025214   0.068212  -0.006574  -0.078883
   55  H 15  S    0.003456   0.031872   0.071634  -0.011796  -0.082292
   56  H 16  S    0.008816   0.040032   0.010971   0.089824  -0.070821
   57  H 17  S    0.001521   0.051064  -0.000182   0.088616   0.040565
   58  H 18  S    0.000820   0.055684  -0.016065   0.008976   0.119129
   59  H 19  S    0.001621   0.049412  -0.055413  -0.078125   0.014409
   60  H 20  S    0.008802   0.035058  -0.052352  -0.075073  -0.064684

                     16         17         18         19         20
                   -0.8550    -0.7742    -0.7531    -0.7105    -0.6556
                     A          A          A          A          A   
    1  C  1  S   -0.132735   0.035948  -0.009412   0.068971  -0.004021
    2  C  1  S    0.385006  -0.111696   0.033995  -0.220761   0.011408
    3  C  1  X   -0.024111  -0.086068   0.072500  -0.165463   0.002190
    4  C  1  Y   -0.009261  -0.001716  -0.012553  -0.002437   0.144919
    5  C  1  Z   -0.050426   0.043733  -0.001957   0.106496   0.023350
    6  C  2  S   -0.000760  -0.055336   0.046550  -0.115117   0.004077
    7  C  2  S    0.002072   0.165211  -0.140865   0.355048  -0.015594
    8  C  2  X    0.106917  -0.036696   0.021327  -0.099368   0.103027
    9  C  2  Y   -0.127738  -0.017919   0.047948  -0.107552   0.090378
   10  C  2  Z   -0.100735   0.017869   0.002067   0.030616  -0.010700
   11  C  3  S    0.132134   0.014088  -0.036902   0.067769  -0.001452
   12  C  3  S   -0.383399  -0.048083   0.114161  -0.217284   0.003253
   13  C  3  X    0.043306  -0.017161   0.017090  -0.006453   0.112522
   14  C  3  Y   -0.015349  -0.072565   0.089364  -0.184394  -0.000674
   15  C  3  Z    0.028448  -0.054435   0.003265  -0.046676  -0.074600
   16  C  4  S   -0.062516   0.081798   0.041383  -0.015599   0.028200
   17  C  4  S    0.180626  -0.253424  -0.121197   0.049803  -0.097393
   18  C  4  X    0.052680   0.034853   0.084203   0.076612   0.157798
   19  C  4  Y    0.016880  -0.128011   0.165925   0.095956  -0.085447
   20  C  4  Z    0.040708  -0.053209  -0.063035   0.022065  -0.139877
   21  C  5  S    0.006539  -0.095479   0.057779   0.047489  -0.026673
   22  C  5  S   -0.018808   0.283212  -0.175356  -0.145306   0.080788
   23  C  5  X   -0.049307   0.005451   0.132046   0.081692   0.064642
   24  C  5  Y    0.062339  -0.097585  -0.041846   0.052443   0.136615
   25  C  5  Z    0.048909  -0.034156  -0.100933  -0.019465  -0.062642
   26  C  6  S    0.071510   0.007696  -0.084260  -0.031725   0.032985
   27  C  6  S   -0.206921  -0.028990   0.259967   0.098731  -0.110881
   28  C  6  X   -0.051144  -0.149080   0.007420   0.085572  -0.077204
   29  C  6  Y    0.004497  -0.048929  -0.064400   0.025224   0.272131
   30  C  6  Z   -0.037694   0.124510  -0.009251   0.006671   0.083452
   31  C  7  S    0.052009   0.081140   0.082624  -0.019663  -0.026249
   32  C  7  S   -0.151061  -0.246701  -0.244736   0.062685   0.080047
   33  C  7  X    0.003047  -0.018386  -0.130662  -0.039176  -0.139962
   34  C  7  Y    0.067696   0.119105  -0.098806  -0.097495   0.052342
   35  C  7  Z    0.010178   0.074443   0.030752   0.016631   0.072075
   36  C  8  S   -0.036953  -0.088605  -0.001481   0.039498   0.032413
   37  C  8  S    0.106524   0.263464   0.016024  -0.118981  -0.113906
   38  C  8  X   -0.042411  -0.003527  -0.163441  -0.081115  -0.121131
   39  C  8  Y    0.043331   0.106039   0.116705  -0.051121  -0.186845
   40  C  8  Z    0.038047   0.051672   0.125404   0.045879  -0.024726
   41  C  9  S   -0.062140  -0.000516  -0.107366  -0.051610   0.014040
   42  C  9  S    0.189392   0.001199   0.343320   0.167572  -0.044897
   43  C  9  X    0.012692   0.196521   0.058152  -0.052362  -0.010042
   44  C  9  Y   -0.087489   0.060703  -0.074677  -0.080534  -0.049421
   45  C  9  Z   -0.026090  -0.068502  -0.087620   0.029076  -0.030324
   46  O 10  S    0.036102  -0.001259   0.058953   0.023325  -0.029164
   47  O 10  S   -0.149811   0.005703  -0.258959  -0.104725   0.139343
   48  O 10  X    0.006651   0.097536   0.037710  -0.027106  -0.023099
   49  O 10  Y   -0.034768   0.033070  -0.087370  -0.073518   0.074591
   50  O 10  Z   -0.010305  -0.033223  -0.069204   0.004690   0.032327
   51  H 11  S    0.143521  -0.053856   0.022826  -0.121307  -0.100457
   52  H 12  S    0.122385  -0.091286   0.032277  -0.183335   0.074234
   53  H 13  S    0.000495   0.085893  -0.083326   0.236772  -0.105182
   54  H 14  S   -0.142621  -0.032263   0.045646  -0.121639  -0.094366
   55  H 15  S   -0.119948  -0.049983   0.100634  -0.174436   0.063074
   56  H 16  S    0.054687  -0.139334  -0.095834   0.001006  -0.195689
   57  H 17  S   -0.009141   0.143504  -0.110938  -0.115466  -0.078718
   58  H 18  S   -0.075631  -0.027036   0.138640   0.039379  -0.260310
   59  H 19  S   -0.060629  -0.142231  -0.155820   0.013156  -0.080789
   60  H 20  S    0.034299   0.139455  -0.022088  -0.111476  -0.195620

                     21         22         23         24         25
                   -0.6060    -0.5917    -0.5868    -0.5546    -0.5419
                     A          A          A          A          A   
    1  C  1  S    0.015522  -0.007150   0.001086   0.000319   0.004291
    2  C  1  S   -0.055526   0.020212   0.001524  -0.002841  -0.022791
    3  C  1  X   -0.039995  -0.012515   0.157919  -0.140771  -0.222044
    4  C  1  Y    0.264922  -0.095330   0.047006  -0.207706  -0.104580
    5  C  1  Z    0.109217  -0.102045  -0.054415   0.047059   0.058632
    6  C  2  S   -0.027094   0.005959   0.004760   0.012582  -0.007377
    7  C  2  S    0.083026  -0.016317  -0.014692  -0.041402   0.023904
    8  C  2  X    0.190306  -0.081416  -0.110072   0.048547   0.127790
    9  C  2  Y    0.164256  -0.058750   0.062416  -0.143099  -0.106773
   10  C  2  Z    0.003497  -0.055992   0.073087  -0.033344  -0.112438
   11  C  3  S    0.014167  -0.009102  -0.004541  -0.004195   0.001652
   12  C  3  S   -0.051132   0.029060   0.011903   0.023734  -0.001145
   13  C  3  X    0.247853  -0.066515  -0.139990   0.113104   0.188090
   14  C  3  Y   -0.075812   0.106218  -0.131119   0.142885   0.199877
   15  C  3  Z   -0.156487  -0.002519   0.017415   0.058642  -0.030043
   16  C  4  S   -0.001464   0.054914  -0.012188  -0.020984  -0.006496
   17  C  4  S    0.007501  -0.185647   0.036631   0.072032   0.021585
   18  C  4  X   -0.002834   0.138454  -0.024437   0.134491  -0.134816
   19  C  4  Y    0.013991   0.038468  -0.244855  -0.110935  -0.067465
   20  C  4  Z    0.010031  -0.049715   0.001399  -0.190951   0.077582
   21  C  5  S   -0.005236  -0.055769  -0.000239  -0.009397   0.017435
   22  C  5  S    0.020174   0.190097  -0.000678   0.026125  -0.056485
   23  C  5  X   -0.069153  -0.070655  -0.110531   0.054860  -0.134365
   24  C  5  Y   -0.065269  -0.185957   0.187864   0.249606  -0.049501
   25  C  5  Z    0.046539   0.103665   0.098211  -0.114780   0.148805
   26  C  6  S    0.003886   0.056287   0.007238  -0.000611   0.005314
   27  C  6  S   -0.011917  -0.196116  -0.020014   0.000040  -0.014001
   28  C  6  X    0.036099   0.002331   0.151992  -0.064200   0.175674
   29  C  6  Y   -0.081462   0.012231   0.131363   0.049521  -0.049281
   30  C  6  Z   -0.049553   0.046414  -0.124542   0.018200  -0.089308
   31  C  7  S    0.000734  -0.046259  -0.006352   0.007856  -0.019775
   32  C  7  S    0.008071   0.157010   0.040366  -0.016208   0.065753
   33  C  7  X    0.147436   0.158974  -0.050654   0.182010  -0.111417
   34  C  7  Y   -0.112229  -0.049877  -0.247226  -0.142675  -0.033654
   35  C  7  Z   -0.145607  -0.092707  -0.094599  -0.145583   0.078033
   36  C  8  S    0.014227   0.049925   0.020056   0.018412  -0.005406
   37  C  8  S   -0.034824  -0.162988  -0.053680  -0.052178   0.015897
   38  C  8  X    0.039854  -0.134761  -0.145714   0.110463  -0.196741
   39  C  8  Y    0.161778  -0.089620   0.159704   0.220048  -0.105277
   40  C  8  Z    0.020495   0.041890   0.138401   0.015945   0.063142
   41  C  9  S   -0.033248  -0.086017  -0.007437   0.011692   0.020779
   42  C  9  S    0.113897   0.299704   0.022889  -0.038553  -0.070859
   43  C  9  X   -0.004542  -0.018002   0.299283  -0.017463   0.186110
   44  C  9  Y    0.059736   0.029392   0.076674   0.005111  -0.004085
   45  C  9  Z    0.004143   0.017384  -0.071911  -0.064737  -0.153097
   46  O 10  S    0.034088   0.054691   0.002606  -0.009695  -0.028592
   47  O 10  S   -0.167497  -0.269444  -0.012606   0.049422   0.148064
   48  O 10  X    0.036722   0.020945   0.279445   0.030640   0.138486
   49  O 10  Y   -0.113087  -0.232976   0.066656   0.086182   0.226976
   50  O 10  Z   -0.078156  -0.110401  -0.081190  -0.040444  -0.028237
   51  H 11  S   -0.248362   0.114459  -0.010877   0.134124   0.045020
   52  H 12  S    0.070936  -0.011145   0.128244  -0.209647  -0.208420
   53  H 13  S   -0.154315   0.069443   0.028293   0.026782  -0.012883
   54  H 14  S   -0.255343   0.075374   0.086580  -0.034776  -0.113001
   55  H 15  S    0.075593   0.058780  -0.148259   0.144913   0.233736
   56  H 16  S    0.002033  -0.186764   0.003456  -0.174455   0.127948
   57  H 17  S    0.085265   0.263976  -0.043160  -0.210052   0.111737
   58  H 18  S    0.065084  -0.101094  -0.049081  -0.052902   0.098205
   59  H 19  S    0.176773   0.230049   0.072079   0.212575  -0.076629
   60  H 20  S    0.086875  -0.209203  -0.025326   0.169473  -0.176579

                     26         27         28         29         30
                   -0.5156    -0.5060    -0.4866    -0.4785    -0.4506
                     A          A          A          A          A   
    1  C  1  S   -0.010055  -0.008405   0.003790  -0.030589   0.007159
    2  C  1  S    0.036978   0.017061  -0.017687   0.106785  -0.025507
    3  C  1  X   -0.118597  -0.151416   0.022764  -0.213118   0.080937
    4  C  1  Y    0.048692   0.096153   0.294071   0.093000  -0.132187
    5  C  1  Z    0.158294  -0.131668   0.000951   0.167459  -0.119403
    6  C  2  S    0.009519  -0.017084  -0.007639   0.007274  -0.002195
    7  C  2  S   -0.033606   0.060541   0.032974  -0.032402   0.007503
    8  C  2  X    0.133481   0.042132  -0.091442   0.314913  -0.094780
    9  C  2  Y   -0.163529   0.034234  -0.253672   0.002517   0.140413
   10  C  2  Z   -0.033699  -0.230026  -0.151402  -0.029040   0.080449
   11  C  3  S    0.009836  -0.002885   0.031996  -0.005299  -0.006818
   12  C  3  S   -0.026613   0.000510  -0.110510   0.023875   0.022015
   13  C  3  X   -0.042707  -0.097406  -0.078471  -0.235262   0.107415
   14  C  3  Y    0.094625   0.191487   0.235841  -0.076256  -0.127994
   15  C  3  Z    0.168888  -0.132572   0.126393   0.191075  -0.110031
   16  C  4  S    0.011533   0.008576   0.001373  -0.000468   0.003646
   17  C  4  S   -0.035820  -0.042931  -0.004782   0.008663  -0.004319
   18  C  4  X   -0.263487   0.083216   0.030904   0.013534  -0.180067
   19  C  4  Y    0.020803  -0.045646   0.134059   0.062519   0.240235
   20  C  4  Z    0.042297   0.239692  -0.004607  -0.036759   0.134740
   21  C  5  S    0.004799  -0.021113  -0.005592   0.007888  -0.000227
   22  C  5  S   -0.018955   0.074328   0.022295  -0.028145   0.000928
   23  C  5  X    0.021546   0.220346   0.025689   0.024784   0.226176
   24  C  5  Y   -0.051830   0.068400  -0.114935  -0.045306  -0.216368
   25  C  5  Z   -0.150751   0.111000   0.012212  -0.076210  -0.176523
   26  C  6  S   -0.022073  -0.006609  -0.002824   0.011556  -0.004970
   27  C  6  S    0.082688   0.013490   0.006789  -0.043249   0.007806
   28  C  6  X   -0.116140   0.133330   0.019828  -0.118553  -0.178646
   29  C  6  Y    0.251459   0.072066   0.068427  -0.128810   0.137265
   30  C  6  Z    0.032443   0.217815   0.025563   0.026927   0.240898
   31  C  7  S   -0.019232   0.000884   0.011857   0.002254  -0.003208
   32  C  7  S    0.072376   0.001675  -0.030003  -0.011436   0.021349
   33  C  7  X   -0.125637   0.030824  -0.028017   0.198659   0.119799
   34  C  7  Y   -0.025741  -0.143188  -0.110993   0.039788  -0.091633
   35  C  7  Z   -0.009256   0.152211  -0.120954  -0.027652  -0.060478
   36  C  8  S    0.010107   0.003953  -0.000974   0.003724   0.011158
   37  C  8  S   -0.036163  -0.009161   0.014303  -0.015824  -0.036104
   38  C  8  X    0.013268   0.154446  -0.052786  -0.089162  -0.092279
   39  C  8  Y    0.036094   0.035523   0.172409  -0.072791   0.077664
   40  C  8  Z   -0.060527   0.155483  -0.015023   0.106130   0.096644
   41  C  9  S   -0.006462   0.008414   0.007583  -0.014746   0.000396
   42  C  9  S    0.014437  -0.034045  -0.021439   0.057969   0.001197
   43  C  9  X   -0.002712   0.109076  -0.069461   0.135189   0.106753
   44  C  9  Y    0.320489  -0.035937  -0.147193  -0.170878  -0.085850
   45  C  9  Z    0.013871   0.274961  -0.196491   0.003964  -0.121346
   46  O 10  S    0.055822   0.009989  -0.034641  -0.021417  -0.018406
   47  O 10  S   -0.297717  -0.053758   0.190412   0.119226   0.105838
   48  O 10  X    0.102914   0.104253  -0.145782   0.110875   0.120283
   49  O 10  Y   -0.283220  -0.138049   0.292334   0.151725   0.251210
   50  O 10  Z   -0.258922   0.169056   0.036401   0.136184   0.006682
   51  H 11  S   -0.102718  -0.021050  -0.270393  -0.110461   0.166400
   52  H 12  S   -0.067792   0.011777   0.217615  -0.091831  -0.009985
   53  H 13  S   -0.008075  -0.039243   0.239675  -0.251693  -0.015646
   54  H 14  S    0.109038   0.081548   0.114200   0.277024  -0.157252
   55  H 15  S   -0.005981   0.094211   0.076000  -0.244339   0.002652
   56  H 16  S    0.181726   0.079629  -0.000199  -0.014201   0.256915
   57  H 17  S   -0.031013  -0.085706   0.092950  -0.021938  -0.012184
   58  H 18  S   -0.223847  -0.056420  -0.065206   0.048910  -0.232902
   59  H 19  S   -0.052420  -0.023341   0.049591   0.163885   0.174802
   60  H 20  S    0.016214   0.105849   0.092509  -0.129382  -0.037768

                     31         32         33         34         35
                   -0.4448    -0.4166    -0.3568    -0.3143    -0.2712
                     A          A          A          A          A   
    1  C  1  S   -0.009204   0.002095  -0.005650  -0.000051   0.027301
    2  C  1  S    0.037887   0.006786   0.006884   0.000757  -0.131673
    3  C  1  X   -0.085063   0.178394   0.025229  -0.017712  -0.183382
    4  C  1  Y   -0.153166  -0.018697   0.090010  -0.018872   0.057724
    5  C  1  Z    0.093370   0.196096  -0.135707   0.019620  -0.345442
    6  C  2  S    0.002702   0.020825   0.012981  -0.003310  -0.006644
    7  C  2  S   -0.015265  -0.073843  -0.049592   0.010591   0.028329
    8  C  2  X    0.132045  -0.077569   0.025165   0.015950   0.011861
    9  C  2  Y    0.085232  -0.177553  -0.118525   0.010679   0.012268
   10  C  2  Z    0.075034   0.150521   0.106255   0.006309  -0.138898
   11  C  3  S   -0.014595  -0.005345  -0.011604  -0.002308  -0.012014
   12  C  3  S    0.052159   0.021619   0.066247   0.010737   0.071770
   13  C  3  X   -0.042790   0.154291   0.181418  -0.014308   0.124676
   14  C  3  Y   -0.119286   0.114703  -0.106485  -0.021996  -0.102531
   15  C  3  Z    0.006261   0.053567   0.285096   0.010146   0.204066
   16  C  4  S    0.023871   0.008950  -0.015858  -0.031822  -0.012603
   17  C  4  S   -0.087577  -0.029136   0.085475   0.144797   0.069305
   18  C  4  X    0.043155  -0.032061  -0.122840   0.226327  -0.184291
   19  C  4  Y    0.120272   0.037886   0.080240   0.242991  -0.000100
   20  C  4  Z   -0.017120  -0.016145  -0.297406  -0.019833  -0.266495
   21  C  5  S    0.004608   0.017119   0.011810   0.007295  -0.001801
   22  C  5  S   -0.007953  -0.063381  -0.041846  -0.023274   0.003351
   23  C  5  X   -0.128392  -0.122911  -0.051931   0.044386   0.011972
   24  C  5  Y   -0.165409  -0.063556  -0.068123  -0.095590  -0.035681
   25  C  5  Z    0.115658  -0.111581  -0.022108   0.108785  -0.082612
   26  C  6  S   -0.002391  -0.006457   0.018110  -0.001439   0.005911
   27  C  6  S    0.020112   0.037297  -0.078647   0.009214  -0.050602
   28  C  6  X    0.159086  -0.174633   0.193469   0.075637   0.168101
   29  C  6  Y    0.281381   0.054333  -0.014220   0.045818  -0.046672
   30  C  6  Z   -0.125752  -0.183848   0.146200  -0.042435   0.206313
   31  C  7  S   -0.009999   0.003078  -0.009187  -0.012259  -0.006447
   32  C  7  S    0.052116  -0.008962   0.036255   0.044395   0.025670
   33  C  7  X   -0.208630   0.014378   0.135816  -0.139573  -0.181979
   34  C  7  Y   -0.268604   0.019853  -0.172086   0.076108   0.055564
   35  C  7  Z    0.001644  -0.035609   0.397388  -0.063554  -0.255785
   36  C  8  S   -0.005641  -0.000668   0.006441   0.037099  -0.005664
   37  C  8  S    0.038438   0.002651  -0.027227  -0.165555   0.027871
   38  C  8  X    0.055829   0.029365   0.227108   0.200324  -0.202589
   39  C  8  Y    0.195267  -0.039767  -0.128930  -0.007918   0.142592
   40  C  8  Z    0.058972   0.102642   0.306791  -0.262161  -0.293995
   41  C  9  S   -0.002636  -0.002313   0.006956   0.001059   0.009001
   42  C  9  S    0.011145   0.012106  -0.025227  -0.002719  -0.037572
   43  C  9  X   -0.104057   0.203497  -0.038238  -0.148767   0.095610
   44  C  9  Y   -0.142472  -0.171249   0.034837  -0.072843  -0.002427
   45  C  9  Z    0.037882   0.348319  -0.010581   0.103258   0.112226
   46  O 10  S   -0.011121  -0.002740   0.000767  -0.000306  -0.000258
   47  O 10  S    0.064668   0.016496  -0.006713   0.001536  -0.001256
   48  O 10  X   -0.278821   0.206577   0.077040   0.725413   0.070073
   49  O 10  Y    0.008563  -0.132342   0.031258   0.213127  -0.187062
   50  O 10  Z    0.197416   0.430678  -0.096895  -0.203837   0.355219
   51  H 11  S    0.110902  -0.078792  -0.008674   0.010949   0.072665
   52  H 12  S   -0.182776   0.044856   0.124398  -0.027636   0.031393
   53  H 13  S   -0.165013   0.173176   0.060638  -0.018771  -0.025306
   54  H 14  S    0.041528  -0.086366  -0.069294   0.016596  -0.049215
   55  H 15  S   -0.103158   0.160369  -0.040409  -0.041101  -0.069995
   56  H 16  S   -0.069839   0.000745  -0.103232  -0.110556  -0.042299
   57  H 17  S    0.248207   0.050245   0.069499   0.113902  -0.009396
   58  H 18  S   -0.190442  -0.067996   0.011880  -0.009178   0.080020
   59  H 19  S   -0.094835   0.022744  -0.058411  -0.116494  -0.009532
   60  H 20  S    0.203948  -0.017871   0.035682   0.120123  -0.000828

                     36         37         38         39         40
                   -0.2234     0.2067     0.2159     0.3540     0.3894
                     A          A          A          A          A   
    1  C  1  S   -0.025328   0.000451  -0.041468   0.031128  -0.030404
    2  C  1  S    0.090304  -0.028747   0.208753  -0.134048   0.160011
    3  C  1  X    0.083479  -0.101694   0.210637  -0.133737   0.228544
    4  C  1  Y   -0.031189   0.043720  -0.072424   0.117389  -0.066718
    5  C  1  Z    0.181387  -0.095572   0.349435  -0.398107   0.269716
    6  C  2  S    0.021705   0.018745  -0.007581  -0.001262  -0.007705
    7  C  2  S   -0.105092  -0.105389   0.043142   0.009081   0.057395
    8  C  2  X    0.167917   0.177642  -0.103807  -0.018939  -0.110455
    9  C  2  Y   -0.232938  -0.183943   0.112897   0.016652   0.125313
   10  C  2  Z    0.460952   0.460230  -0.164266  -0.053582  -0.285956
   11  C  3  S   -0.030052   0.025809   0.029760  -0.040282  -0.021907
   12  C  3  S    0.113600  -0.149978  -0.130221   0.184689   0.121896
   13  C  3  X    0.142863  -0.180064  -0.115121   0.233968   0.135951
   14  C  3  Y   -0.089346   0.057718   0.074729  -0.196378   0.018852
   15  C  3  Z    0.211998  -0.305423  -0.144648   0.427735   0.206801
   16  C  4  S    0.031971   0.009132  -0.022290   0.051464  -0.008589
   17  C  4  S   -0.123836  -0.071816   0.097670  -0.249603   0.063782
   18  C  4  X    0.086692   0.123767  -0.139442   0.293406   0.004103
   19  C  4  Y   -0.051726  -0.079309   0.052029  -0.050960  -0.044344
   20  C  4  Z    0.198268   0.168271  -0.222595   0.461317   0.036852
   21  C  5  S   -0.022665   0.019156  -0.006831   0.002372   0.020653
   22  C  5  S    0.107798  -0.108351   0.037510  -0.013703  -0.115169
   23  C  5  X    0.387579  -0.399107   0.109204  -0.056914  -0.094279
   24  C  5  Y    0.015920   0.030668   0.024700   0.038564  -0.043201
   25  C  5  Z    0.393279  -0.438544   0.192118   0.032109  -0.096402
   26  C  6  S    0.030047   0.019818   0.009475  -0.053887   0.006564
   27  C  6  S   -0.119077  -0.111397  -0.017187   0.269982  -0.014117
   28  C  6  X    0.160785   0.155907   0.063300  -0.339037   0.106833
   29  C  6  Y   -0.060177  -0.049987  -0.010608   0.072368  -0.050185
   30  C  6  Z    0.215703   0.292565   0.040305  -0.395001   0.168957
   31  C  7  S    0.008319  -0.015182   0.009064   0.001347  -0.001000
   32  C  7  S   -0.034235   0.073486  -0.042326  -0.008451   0.007871
   33  C  7  X   -0.005346   0.054801   0.249907   0.202392   0.187370
   34  C  7  Y    0.055793  -0.147503  -0.105361  -0.127584  -0.122597
   35  C  7  Z   -0.081046   0.215019   0.376260   0.348465   0.313930
   36  C  8  S   -0.004765   0.007495  -0.002926  -0.001411  -0.002306
   37  C  8  S    0.021404  -0.033497   0.013122   0.008382   0.012992
   38  C  8  X   -0.109623  -0.120397  -0.133912  -0.103529  -0.253031
   39  C  8  Y    0.060709   0.100786   0.097188   0.079418   0.194838
   40  C  8  Z   -0.127478  -0.268647  -0.249090  -0.211897  -0.485809
   41  C  9  S    0.009035  -0.018634   0.003410  -0.001756  -0.000267
   42  C  9  S   -0.038304   0.089392  -0.018407   0.011666   0.003379
   43  C  9  X    0.051970  -0.118937  -0.173963  -0.097498   0.273293
   44  C  9  Y    0.044537  -0.052998   0.161503   0.080062  -0.197912
   45  C  9  Z   -0.008621  -0.042438  -0.376518  -0.182457   0.505729
   46  O 10  S   -0.000120   0.002085  -0.000907   0.001451   0.000127
   47  O 10  S   -0.001298  -0.009062   0.004992  -0.009502  -0.001436
   48  O 10  X   -0.081987   0.092171   0.222669   0.077431  -0.198208
   49  O 10  Y   -0.040655   0.008554  -0.186551  -0.042486   0.147183
   50  O 10  Z    0.024727   0.065526   0.437527   0.149345  -0.360347
   51  H 11  S    0.002694   0.044950  -0.056634  -0.011882  -0.037134
   52  H 12  S    0.072356   0.130723  -0.061062  -0.066927  -0.071162
   53  H 13  S    0.047135   0.016158  -0.004506  -0.002201   0.010142
   54  H 14  S   -0.003107   0.076825   0.005802   0.001324  -0.040101
   55  H 15  S    0.060957   0.129048  -0.044015   0.032519  -0.079861
   56  H 16  S    0.005898   0.067675   0.002753   0.019001  -0.091457
   57  H 17  S   -0.061083   0.020073  -0.006478  -0.002969   0.030496
   58  H 18  S    0.005106   0.054439  -0.068549  -0.057256  -0.086161
   59  H 19  S    0.023130  -0.030702   0.008702   0.006578  -0.017230
   60  H 20  S   -0.024819   0.041521  -0.022137  -0.013730  -0.016485

                     41         42         43         44         45
                    0.5165     0.5729     0.5898     0.6220     0.6227
                     A          A          A          A          A   
    1  C  1  S   -0.010613   0.024669   0.003100  -0.007574   0.036466
    2  C  1  S    0.037473  -0.159155  -0.018423   0.051099  -0.230142
    3  C  1  X    0.261132   0.102841   0.112828  -0.005119   0.138204
    4  C  1  Y   -0.103490   0.223145   0.189672   0.067347   0.371334
    5  C  1  Z    0.372382   0.070745  -0.037088  -0.021256   0.029895
    6  C  2  S   -0.031066   0.020531   0.013931  -0.000746   0.042410
    7  C  2  S    0.194222  -0.127464  -0.087417   0.001699  -0.268123
    8  C  2  X   -0.095788   0.192029   0.152422  -0.048423   0.384042
    9  C  2  Y    0.171795   0.167157   0.128948   0.017590   0.310327
   10  C  2  Z   -0.311172  -0.013176   0.002475   0.002442   0.012001
   11  C  3  S   -0.011460   0.013117   0.025918   0.027878   0.030971
   12  C  3  S    0.041871  -0.084631  -0.166090  -0.175254  -0.194738
   13  C  3  X    0.230928   0.241780   0.172655  -0.050086   0.341354
   14  C  3  Y   -0.078131   0.112067   0.003053  -0.131867   0.147933
   15  C  3  Z    0.410952  -0.078142  -0.029145   0.062859  -0.154075
   16  C  4  S    0.043392  -0.000286   0.047383   0.111530  -0.010273
   17  C  4  S   -0.229957  -0.020695  -0.290845  -0.655901   0.075702
   18  C  4  X    0.250328   0.319602   0.095552  -0.382893  -0.238503
   19  C  4  Y   -0.184469   0.214396  -0.077892  -0.396634  -0.092615
   20  C  4  Z    0.409261  -0.153176  -0.138784  -0.141517   0.085777
   21  C  5  S    0.010263   0.043934   0.019023   0.002412  -0.050080
   22  C  5  S   -0.078885  -0.274511  -0.121434  -0.019878   0.314933
   23  C  5  X   -0.283526   0.160419   0.079611  -0.019337  -0.130470
   24  C  5  Y    0.001707   0.275542   0.133940   0.042142  -0.267696
   25  C  5  Z   -0.280099  -0.115650  -0.122047   0.195741   0.153037
   26  C  6  S    0.040378   0.055070  -0.065056  -0.015301   0.006480
   27  C  6  S   -0.213919  -0.347927   0.377593   0.088997  -0.023841
   28  C  6  X    0.191216  -0.097978   0.380473  -0.075086  -0.140784
   29  C  6  Y   -0.092125   0.332201   0.274875   0.203474  -0.307249
   30  C  6  Z    0.465703   0.026100  -0.054868   0.044624  -0.037360
   31  C  7  S   -0.015740   0.050689   0.021230   0.051255  -0.048325
   32  C  7  S    0.089699  -0.309316  -0.113767  -0.342893   0.288368
   33  C  7  X   -0.205869  -0.202242   0.494062  -0.144972  -0.080215
   34  C  7  Y    0.047784   0.093584   0.247696   0.131499  -0.187685
   35  C  7  Z   -0.240124   0.199436  -0.232266   0.167017  -0.029534
   36  C  8  S    0.014586  -0.010835   0.023339   0.111048   0.000290
   37  C  8  S   -0.084976   0.041396  -0.120223  -0.683285   0.002773
   38  C  8  X    0.117183  -0.256773   0.532726  -0.033605  -0.093269
   39  C  8  Y   -0.112467  -0.010006   0.055096  -0.368162  -0.025790
   40  C  8  Z    0.249259   0.095221  -0.235849  -0.173571   0.034267
   41  C  9  S   -0.017885   0.090804  -0.088999  -0.128742  -0.018655
   42  C  9  S    0.102223  -0.535317   0.525820   0.757184   0.107732
   43  C  9  X   -0.212818   0.049333   0.324961  -0.113683  -0.172505
   44  C  9  Y    0.055051   0.121315  -0.053969  -0.452624  -0.072674
   45  C  9  Z   -0.267238   0.039561  -0.194336  -0.029184   0.052493
   46  O 10  S    0.002662  -0.018909   0.013331   0.007190   0.003876
   47  O 10  S   -0.015603   0.118459  -0.079610  -0.029332  -0.025284
   48  O 10  X    0.102660   0.000311  -0.109756   0.043571   0.046629
   49  O 10  Y   -0.032014  -0.157494   0.073060   0.077915   0.050782
   50  O 10  Z    0.154129  -0.076937   0.085661  -0.032384  -0.002812
   51  H 11  S    0.069073   0.309078   0.174707   0.021085   0.463858
   52  H 12  S   -0.001949  -0.125801  -0.220057  -0.077999  -0.241239
   53  H 13  S   -0.041937   0.347797   0.258781  -0.030225   0.652123
   54  H 14  S    0.066287   0.273341   0.251923   0.035049   0.439585
   55  H 15  S   -0.011264  -0.215419  -0.043155   0.224864  -0.278436
   56  H 16  S    0.032559   0.311172   0.348919   0.244203  -0.261832
   57  H 17  S   -0.021328   0.518001   0.274535  -0.057361  -0.517360
   58  H 18  S    0.053287   0.538537  -0.087295   0.171737  -0.235251
   59  H 19  S   -0.003857   0.483282  -0.424428   0.398785  -0.138539
   60  H 20  S    0.085807   0.166075  -0.390582   0.656357   0.100505

                     46         47         48         49         50
                    0.6647     0.6976     0.7143     0.7259     0.7411
                     A          A          A          A          A   
    1  C  1  S    0.034335  -0.116270  -0.026697   0.126736  -0.066486
    2  C  1  S   -0.215372   0.739379   0.161491  -0.810987   0.419585
    3  C  1  X   -0.048726   0.140106  -0.134149  -0.174694   0.240316
    4  C  1  Y   -0.268792  -0.182380   0.275733  -0.484059  -0.109664
    5  C  1  Z    0.044100  -0.358296   0.103048   0.156448  -0.222224
    6  C  2  S   -0.010925   0.070772   0.062432  -0.014081  -0.006868
    7  C  2  S    0.064134  -0.431681  -0.387624   0.087320   0.069248
    8  C  2  X    0.029476   0.106702  -0.032490   0.201908   0.030562
    9  C  2  Y   -0.107781  -0.055166   0.069835  -0.238930  -0.063220
   10  C  2  Z   -0.094672  -0.021989   0.046692  -0.184527   0.023335
   11  C  3  S    0.001820  -0.088453  -0.122595  -0.090376  -0.066940
   12  C  3  S   -0.012236   0.553883   0.786123   0.581947   0.421394
   13  C  3  X    0.190668   0.145916  -0.331510   0.367894   0.068509
   14  C  3  Y   -0.056754   0.112405   0.336153   0.252472   0.273172
   15  C  3  Z   -0.118754  -0.212491   0.066388  -0.275689  -0.007578
   16  C  4  S    0.013306  -0.024204  -0.045359   0.025320   0.130875
   17  C  4  S   -0.091047   0.154176   0.300323  -0.142298  -0.817985
   18  C  4  X    0.406549   0.180514  -0.062109  -0.169050  -0.055859
   19  C  4  Y   -0.147150  -0.193569  -0.004985  -0.016964   0.184496
   20  C  4  Z   -0.340591  -0.009189   0.200530   0.125762  -0.102895
   21  C  5  S    0.000284   0.056029   0.046777   0.001514  -0.146716
   22  C  5  S   -0.009079  -0.353630  -0.305964  -0.006277   0.935254
   23  C  5  X    0.261571  -0.013101   0.005728  -0.116056  -0.070464
   24  C  5  Y   -0.159375  -0.104450   0.022701   0.070338   0.101596
   25  C  5  Z   -0.125771  -0.050475   0.043649   0.107821  -0.098593
   26  C  6  S    0.080136  -0.079936   0.031163  -0.051464   0.115978
   27  C  6  S   -0.479114   0.509692  -0.192351   0.304400  -0.728638
   28  C  6  X   -0.196803   0.229882  -0.293459   0.030281   0.057069
   29  C  6  Y   -0.409440  -0.274508   0.134580   0.192668   0.234311
   30  C  6  Z   -0.174770   0.051902   0.179224   0.006892  -0.146002
   31  C  7  S   -0.120850   0.061863  -0.085962   0.052982  -0.026106
   32  C  7  S    0.744731  -0.409248   0.547794  -0.325642   0.161176
   33  C  7  X   -0.016523  -0.099073   0.019533   0.052163   0.054381
   34  C  7  Y   -0.294559   0.089994   0.079054   0.129895  -0.168303
   35  C  7  Z   -0.022505  -0.039600   0.013218   0.098575  -0.076092
   36  C  8  S    0.091393  -0.003982   0.106831  -0.003649  -0.043149
   37  C  8  S   -0.551724   0.011734  -0.682774   0.019394   0.287543
   38  C  8  X   -0.037322  -0.080848   0.094625   0.090547  -0.012737
   39  C  8  Y   -0.136609  -0.236978   0.027419   0.009660   0.107374
   40  C  8  Z   -0.076757   0.013863  -0.036243  -0.064313   0.016731
   41  C  9  S    0.005064   0.028057  -0.048591  -0.040353  -0.023973
   42  C  9  S   -0.042762  -0.182631   0.293147   0.242778   0.143165
   43  C  9  X    0.303461   0.001055   0.313003  -0.069278  -0.292307
   44  C  9  Y   -0.073969  -0.078350   0.103162  -0.045780  -0.081689
   45  C  9  Z   -0.169139  -0.134813  -0.210732  -0.039583   0.142187
   46  O 10  S   -0.017013  -0.020917   0.011316   0.007644   0.010135
   47  O 10  S    0.120900   0.143778  -0.074671  -0.050715  -0.069271
   48  O 10  X   -0.069472   0.029074  -0.108031   0.011134   0.074433
   49  O 10  Y   -0.165768  -0.169913   0.042351   0.064666   0.110338
   50  O 10  Z   -0.044062  -0.048278   0.104935   0.033341  -0.009331
   51  H 11  S   -0.112431  -0.651407   0.182800   0.042589  -0.388294
   52  H 12  S    0.322721  -0.426002  -0.128323   0.860147  -0.323911
   53  H 13  S   -0.083288   0.285477   0.225506  -0.044200  -0.021818
   54  H 14  S    0.220461  -0.092040  -0.733796   0.089469  -0.202187
   55  H 15  S   -0.088719  -0.457881  -0.429769  -0.737277  -0.415868
   56  H 16  S    0.581434   0.083210  -0.285552  -0.112370   0.403618
   57  H 17  S    0.041814   0.117247   0.148196  -0.032514  -0.392536
   58  H 18  S   -0.089115  -0.534344   0.327913  -0.001649   0.513232
   59  H 19  S   -0.468313   0.289038  -0.261248   0.173232  -0.188797
   60  H 20  S    0.420367   0.199355   0.256458  -0.082584  -0.185337

                     51         52         53         54         55
                    0.7566     0.7867     0.8227     0.8762     0.8828
                     A          A          A          A          A   
    1  C  1  S    0.067792   0.037194  -0.025591   0.010181   0.023130
    2  C  1  S   -0.437979  -0.232688   0.158990  -0.070998  -0.168494
    3  C  1  X   -0.108257   0.487290  -0.349988  -0.061846   0.221989
    4  C  1  Y    0.411292   0.097833  -0.080373  -0.146421   0.012606
    5  C  1  Z    0.262425  -0.252235   0.210272   0.018026  -0.016788
    6  C  2  S   -0.024352  -0.164976   0.110685   0.012980   0.001674
    7  C  2  S    0.160364   1.092151  -0.740490  -0.088151  -0.011589
    8  C  2  X   -0.062298   0.022186  -0.037849   0.140531   0.192933
    9  C  2  Y    0.042494  -0.151507   0.107362   0.148547  -0.266916
   10  C  2  Z    0.080175   0.246685  -0.175759  -0.034121  -0.207135
   11  C  3  S   -0.056035   0.053358  -0.020939   0.006699  -0.023374
   12  C  3  S    0.360555  -0.335199   0.131511  -0.052919   0.168374
   13  C  3  X   -0.371904   0.121056  -0.103969  -0.062741  -0.064160
   14  C  3  Y    0.329143   0.494777  -0.413576  -0.065283  -0.205422
   15  C  3  Z    0.263761   0.090151  -0.052364   0.065791  -0.114716
   16  C  4  S    0.054556  -0.053846  -0.012658   0.033300  -0.082719
   17  C  4  S   -0.345020   0.339133   0.082651  -0.236603   0.574101
   18  C  4  X    0.233210   0.059104   0.259205  -0.312294  -0.198885
   19  C  4  Y   -0.115382   0.310728   0.435977   0.429800  -0.439649
[...]
 18   H            X  0.07203940  0.01823449 -0.01518765 -0.07078022 -0.01421310
                   Y  0.08410281  0.00349416  0.03147649 -0.06690366 -0.01366961
                   Z  0.03520745  0.01142672 -0.01185292  0.00191362 -0.00376034
 19   H            X  0.03060646  0.00159698  0.00592130 -0.14615882 -0.03126983
                   Y  0.06436505  0.00344519  0.02085865 -0.10203126 -0.01840301
                   Z  0.00363606  0.00032399  0.00816267  0.03297890  0.00815608
 20   H            X -0.01091050  0.00011795 -0.00954158 -0.11980766 -0.07312270
                   Y -0.01265313 -0.00018952 -0.00631231 -0.03405373  0.03451132
                   Z  0.00464399 -0.00134361  0.01218003  0.06251121  0.05448061

 TRANS. SAYVETZ    X -0.00000031 -0.00000005 -0.00000296 -0.00000112 -0.00000013
                   Y  0.00000223  0.00000062 -0.00000025 -0.00000033 -0.00000063
                   Z -0.00000252  0.00000146  0.00000086  0.00000094  0.00000269
               TOTAL  0.00000338  0.00000159  0.00000309  0.00000150  0.00000276

   ROT. SAYVETZ    X -0.00005815 -0.00013581 -0.00007227 -0.00002007  0.00001382
                   Y -0.00009003  0.00017531 -0.00010055  0.00003169 -0.00001653
                   Z  0.00002577 -0.00005908  0.00001432 -0.00001738  0.00001570
               TOTAL  0.00011023  0.00022949  0.00012465  0.00004134  0.00002666

                           51          52          53          54          55
       FREQUENCY:      3630.08     3634.32     3686.09     3693.06     3695.66  
        SYMMETRY:         A           A           A           A           A   
    REDUCED MASS:      1.06267     1.06462     1.09101     1.09411     1.09590
    IR INTENSITY:      0.09886     0.07245     0.19340     0.04549     0.14157

  1   C            X  0.03700698 -0.02008765 -0.00496843  0.00115637  0.00924078
                   Y -0.01293393  0.00653205  0.00008930  0.00109856  0.00165972
                   Z -0.04533058  0.02533351  0.00410391 -0.00122149 -0.00576593
  2   C            X  0.00435334  0.00533687  0.01305074 -0.00733115 -0.05946968
                   Y  0.00794987 -0.00252170  0.01178002 -0.00701576 -0.05403653
                   Z -0.00160140 -0.00426219 -0.00136463  0.00059048  0.00623355
  3   C            X -0.00883850 -0.01695660 -0.00031151 -0.00037803  0.00237353
                   Y  0.02980650  0.05812046 -0.00653859  0.00214204  0.01066254
                   Z  0.00401633  0.00637267 -0.00040038  0.00129046  0.00112816
  4   C            X  0.00217936  0.00127565  0.03991785  0.03688627  0.00732152
                   Y -0.00002120 -0.00098357 -0.00739426 -0.00921575 -0.00218060
                   Z -0.00237833 -0.00039917 -0.04074556 -0.03798493 -0.00688086
  5   C            X -0.00198088 -0.00091298 -0.02261122  0.00117069 -0.00048697
                   Y -0.00294390 -0.00064639 -0.03085636  0.00915798 -0.00130132
                   Z  0.00111376  0.00061866  0.01344006  0.00012502  0.00023909
  6   C            X -0.00100216 -0.00012692 -0.01231103  0.02160433 -0.00717424
                   Y  0.00301923  0.00093751  0.03642824 -0.05607486  0.01788999
                   Z  0.00073705 -0.00090418  0.00612782 -0.01112487  0.00444344
  7   C            X  0.00065679 -0.00003416  0.00569389 -0.01273992  0.00611546
                   Y -0.00021163 -0.00007203 -0.00291879  0.00577251 -0.00246841
                   Z  0.00013178 -0.00010173 -0.00433497  0.00929142 -0.00436573
  8   C            X -0.00031861 -0.00006365 -0.00268261  0.00627710 -0.00273357
                   Y -0.00039780 -0.00017561 -0.00199120  0.00512041 -0.00216241
                   Z  0.00009664 -0.00006644  0.00046108 -0.00112490  0.00053885
  9   C            X  0.00003373  0.00011292 -0.00103459 -0.00154242 -0.00010173
                   Y -0.00019221  0.00000714 -0.00072390 -0.00099921 -0.00012210
                   Z  0.00029929  0.00028406  0.00017890  0.00036929 -0.00004487
 10   O            X  0.00000175  0.00000715  0.00005414  0.00014359  0.00001464
                   Y -0.00000315 -0.00004301  0.00005154  0.00019145  0.00003168
                   Z -0.00001707  0.00000429 -0.00002275 -0.00000763  0.00002481
 11   H            X -0.01393455  0.00753791  0.00244964 -0.00072019 -0.00245913
                   Y  0.52982399 -0.28504269 -0.03671920  0.00492595  0.02798993
                   Z  0.28231032 -0.15130284 -0.01798656  0.00237805  0.01372493
 12   H            X -0.37467691  0.20416515  0.03941628 -0.01368106 -0.05611017
                   Y -0.39981907  0.21794561  0.04066118 -0.01497231 -0.06322234
                   Z  0.22728379 -0.12520275 -0.02129004  0.00823267  0.03445587
 13   H            X -0.10398131 -0.02942905 -0.14142725  0.08228754  0.65569095
                   Y -0.09649376 -0.03102874 -0.13297230  0.07714346  0.61425613
                   Z  0.01510168  0.00292300  0.02040843 -0.01157960 -0.09196413
 14   H            X  0.27860141  0.52745300 -0.03261570  0.01111048  0.02259033
                   Y -0.07789190 -0.14700075  0.00929337 -0.00308894 -0.00713807
                   Z -0.11283934 -0.21421029  0.01531519 -0.00543466 -0.01132278
 15   H            X -0.17809384 -0.34059683  0.03782548 -0.00831318 -0.05250536
                   Y -0.25125755 -0.48424856  0.05091990 -0.01132398 -0.07187502
                   Z  0.08485076  0.16379289 -0.01559738  0.00374939  0.02657096
 16   H            X -0.02542575 -0.00763112 -0.44514998 -0.41037843 -0.07713772
                   Y  0.00471358  0.00147941  0.09068778  0.08513754  0.01621269
                   Z  0.02952694  0.00904671  0.47055061  0.43259398  0.08017679
 17   H            X  0.02391785  0.00759028  0.25481742 -0.04609130  0.01178255
                   Y  0.03386683  0.01060006  0.36830200 -0.06861086  0.01720168
                   Z -0.01394441 -0.00445454 -0.15644711  0.02784952 -0.00724528
 18   H            X  0.01401211  0.00493888  0.15428613 -0.23958494  0.07588038
                   Y -0.03526733 -0.01251550 -0.41201133  0.63748350 -0.20232831
                   Z -0.00454659 -0.00133879 -0.07124442  0.11213687 -0.03677332
 19   H            X -0.00653812 -0.00074380 -0.07096150  0.15461565 -0.07202439
                   Y  0.00129343  0.00043932  0.02059883 -0.04508783  0.02100008
                   Z  0.00440295  0.00061865  0.04806278 -0.10401963  0.04854908
 20   H            X  0.00400112  0.00114960  0.02495603 -0.06856077  0.02885483
                   Y  0.00442555  0.00138196  0.02572934 -0.06913542  0.02912289
                   Z -0.00088955  0.00006114 -0.00310497  0.00798127 -0.00329046

 TRANS. SAYVETZ    X  0.00000042  0.00000017 -0.00000072 -0.00000069  0.00000037
                   Y -0.00000021  0.00000011 -0.00000089  0.00000051 -0.00000008
                   Z -0.00000145 -0.00000053 -0.00000019 -0.00000031  0.00000076
               TOTAL  0.00000152  0.00000056  0.00000116  0.00000091  0.00000085

   ROT. SAYVETZ    X -0.00002794  0.00000349 -0.00000624  0.00002845 -0.00000738
                   Y  0.00001368  0.00003355  0.00001164  0.00002834  0.00000485
                   Z  0.00001293  0.00001412  0.00001175 -0.00001306  0.00001002
               TOTAL  0.00003369  0.00003656  0.00001768  0.00004223  0.00001336

                           56          57          58          59          60
       FREQUENCY:      3704.05     3712.80     3736.28     3777.40     3780.01  
        SYMMETRY:         A           A           A           A           A   
    REDUCED MASS:      1.09133     1.10022     1.10603     1.11642     1.11674
    IR INTENSITY:      0.55030     0.10235     0.06835     0.00320     0.01483

  1   C            X  0.00039459  0.00058373 -0.00015247 -0.03145485 -0.01104267
                   Y -0.00075668  0.00188803 -0.00039560 -0.08247316 -0.03004658
                   Z -0.00027884 -0.00033019  0.00002776 -0.00447972 -0.00199870
  2   C            X -0.00414756 -0.00653428  0.00004469 -0.00228554 -0.00376434
                   Y -0.00354470 -0.00571550  0.00005022 -0.00078818 -0.00383066
                   Z  0.00039256  0.00042034  0.00001220  0.00060833 -0.00012985
  3   C            X  0.00023239  0.00132362 -0.00020107  0.02792934 -0.07726990
                   Y  0.00047216  0.00081719 -0.00024166  0.00986545 -0.02600862
                   Z -0.00027125 -0.00102299  0.00012209 -0.01235532  0.03414225
  4   C            X -0.00632919 -0.01958277  0.00181168  0.00002766 -0.00029839
                   Y  0.00223739  0.00824828 -0.00053201 -0.00012000  0.00025167
                   Z  0.00650776  0.01930224 -0.00163358  0.00003038  0.00080844
  5   C            X -0.00729059 -0.03745376  0.00257512 -0.00030160 -0.00036312
                   Y -0.01285537 -0.05646031  0.00384321 -0.00026679 -0.00061550
                   Z  0.00472689  0.02636658 -0.00178187  0.00021171  0.00031387
  6   C            X -0.00336799  0.01431867 -0.00050406  0.00055333  0.00046974
                   Y  0.01596603 -0.03164923  0.00541768 -0.00049394 -0.00067288
                   Z  0.00195989 -0.00950271  0.00088608 -0.00002480  0.00000244
  7   C            X -0.05522232  0.00507355 -0.03663826  0.00040377  0.00027391
                   Y  0.01551872  0.00039249  0.01827168 -0.00016530 -0.00019033
                   Z  0.03658028 -0.00263492  0.02733714 -0.00057366 -0.00036353
  8   C            X  0.03082206 -0.00739718 -0.04798452 -0.00009347 -0.00005069
                   Y  0.02692186 -0.00778698 -0.05727752 -0.00002175  0.00017184
                   Z -0.00506288  0.00069652  0.00179472 -0.00006600 -0.00000927
  9   C            X -0.00138299  0.00086179  0.00192441 -0.00002765 -0.00004835
                   Y -0.00024366  0.00081808 -0.00059601  0.00002588  0.00007236
                   Z  0.00066156 -0.00009731 -0.00129669  0.00009254 -0.00018286
 10   O            X  0.00016322 -0.00006098 -0.00019765  0.00001234 -0.00001258
                   Y  0.00012363 -0.00017710  0.00021050 -0.00001037  0.00001954
                   Z -0.00003208 -0.00003928  0.00020045 -0.00000230 -0.00001945
 11   H            X -0.00037666  0.00046969  0.00008760 -0.01636208 -0.00561508
                   Y  0.00664112 -0.00927195  0.00220044  0.54946566  0.20022691
                   Z  0.00336655 -0.00462555  0.00118371  0.29703703  0.10800970
 12   H            X -0.00032291 -0.00862214  0.00214244  0.39403940  0.14141951
                   Y -0.00074624 -0.01046105  0.00292106  0.41974830  0.15020334
                   Z  0.00078561  0.00563395 -0.00175199 -0.24533312 -0.08770201
 13   H            X  0.04470640  0.07102599 -0.00027383  0.02284053  0.04637481
                   Y  0.04184311  0.06640965 -0.00043089  0.01635757  0.04398684
                   Z -0.00606198 -0.00981249  0.00007503 -0.00407867 -0.00389720
 14   H            X  0.00009865 -0.00836687  0.00054040 -0.20818622  0.57485673
                   Y  0.00009840  0.00242763 -0.00021411  0.05997849 -0.16465358
                   Z  0.00007139  0.00387278 -0.00023644  0.08407088 -0.23172376
 15   H            X -0.00332008 -0.00782030  0.00212745 -0.12242628  0.33359652
                   Y -0.00409131 -0.01047183  0.00261333 -0.17653433  0.48050742
                   Z  0.00159694  0.00440614 -0.00076676  0.06034653 -0.16322938
 16   H            X  0.06888794  0.20512765 -0.01559767 -0.00137084  0.00877194
                   Y -0.01399949 -0.04389415  0.00337116  0.00040156 -0.00190964
                   Z -0.07231520 -0.21510687  0.01652457  0.00164183 -0.01007441
 17   H            X  0.09335409  0.42581713 -0.02679079  0.00251353  0.00455718
                   Y  0.13757623  0.61970245 -0.03971302  0.00342234  0.00666337
                   Z -0.05861803 -0.26621668  0.01707140 -0.00154780 -0.00272784
 18   H            X  0.06103223 -0.13244403  0.01752809 -0.00447646 -0.00333238
                   Y -0.16858127  0.35148445 -0.05000152  0.01092824  0.00871098
                   Z -0.02880151  0.06394048 -0.00883425  0.00140994  0.00130488
 19   H            X  0.62568726 -0.05061320  0.40619785 -0.00529199 -0.00359050
                   Y -0.17688646  0.01317872 -0.11701711  0.00186326  0.00120862
                   Z -0.41492809  0.03284354 -0.26995618  0.00343020  0.00221825
 20   H            X -0.34115115  0.08752670  0.55929719  0.00102338 -0.00029391
                   Y -0.34433238  0.08874795  0.56751911  0.00085157 -0.00050127
                   Z  0.03703522 -0.00959017 -0.05973148  0.00019548  0.00017284

 TRANS. SAYVETZ    X -0.00000020  0.00000051  0.00000000 -0.00000010 -0.00000016
                   Y -0.00000035 -0.00000027  0.00000032  0.00000004 -0.00000003
                   Z  0.00000033 -0.00000061  0.00000028 -0.00000002  0.00000005
               TOTAL  0.00000052  0.00000084  0.00000043  0.00000011  0.00000017

   ROT. SAYVETZ    X -0.00000879  0.00000579 -0.00000652 -0.00002691  0.00001247
                   Y -0.00002468 -0.00000507 -0.00000750 -0.00000634  0.00000374
                   Z  0.00000983 -0.00001293  0.00000185  0.00000667 -0.00000027
               TOTAL  0.00002798  0.00001505  0.00001011  0.00002844  0.00001302

 REFERENCE ON SAYVETZ CONDITIONS - A. SAYVETZ, J.CHEM.PHYS., 7, 383-389(1939).

 NOTE - THE MODES J,K ARE ORTHONORMALIZED ACCORDING TO
 SUM ON I   M(I) * (X(I,J)*X(I,K) + Y(I,J)*Y(I,K) + Z(I,J)*Z(I,K)) = DELTA(J,K)

  MODE FREQ(CM**-1)  SYMMETRY  RED. MASS  IR INTENS.
     1    1060.366    A        9.324720    0.064340
     2       0.136    A        6.555394    0.000117
     3       0.068    A        6.711851    0.000002
     4       0.028    A        6.697366    0.000000
     5       1.397    A        4.864676    0.013476
     6       5.041    A        4.949395    0.004134
     7       6.196    A        4.628741    0.010759
     8     104.131    A        4.137997    0.029771
     9     203.672    A        3.551377    0.016625
    10     265.246    A        4.167079    0.030694
    11     381.413    A        5.277078    0.035425
    12     437.611    A        2.307256    0.075437
    13     465.617    A        3.414184    0.109569
    14     493.043    A        3.992228    0.077133
    15     506.439    A        4.789695    0.104987
    16     552.687    A        1.961656    0.248747
    17     575.845    A        2.545760    0.264889
    18     610.978    A        4.901243    0.016008
    19     677.216    A        5.711282    0.076608
    20     840.260    A        3.287463    0.033026
    21     851.562    A        4.185975    0.032904
    22     926.856    A        1.667075    2.621745
    23     938.110    A        1.761300    0.121163
    24     964.341    A        1.772482    0.902740
    25    1004.119    A        1.456942    0.150428
    26    1040.446    A        1.587002    0.061893
    27    1092.367    A        1.590178    0.228116
    28    1119.736    A        2.732649    0.001835
    29    1166.737    A        2.141530    0.057042
    30    1209.134    A        1.282450    0.003079
    31    1214.218    A        1.508093    0.090255
    32    1240.833    A        1.141102    0.082512
    33    1270.216    A        1.287366    0.408579
    34    1301.612    A        1.134612    0.247636
    35    1318.496    A        1.219224    0.093696
    36    1341.283    A        1.231505    0.051312
    37    1365.534    A        1.156043    0.010767
    38    1386.068    A        1.275969    0.048821
    39    1418.707    A        1.831278    0.674033
    40    1471.058    A        1.323610    0.088160
    41    1488.626    A        1.670940    0.001691
    42    1599.389    A        1.598208    0.164872
    43    1637.161    A        1.712707    0.166620
    44    1668.014    A        1.524682    0.029332
    45    1718.728    A        2.486350    0.476514
    46    1758.373    A        1.912208    0.035438
    47    1813.503    A        1.256192    0.224292
    48    1856.578    A        2.349663    0.040077
    49    2009.744    A        7.078371    0.062096
    50    2080.653    A       10.639112    1.818308
    51    3630.078    A        1.062666    0.098861
    52    3634.317    A        1.064621    0.072447
    53    3686.085    A        1.091014    0.193396
    54    3693.056    A        1.094113    0.045486
    55    3695.663    A        1.095901    0.141574
    56    3704.054    A        1.091326    0.550301
    57    3712.802    A        1.100222    0.102351
    58    3736.281    A        1.106027    0.068346
    59    3777.403    A        1.116417    0.003198
    60    3780.006    A        1.116742    0.014830

     -------------------------------
     THERMOCHEMISTRY AT T=  298.15 K
     -------------------------------

 USING IDEAL GAS, RIGID ROTOR, HARMONIC NORMAL MODE APPROXIMATIONS.
 P=  1.01325E+05 PASCAL.
 ALL FREQUENCIES ARE SCALED BY   1.00000
 THE MOMENTS OF INERTIA ARE (IN AMU*BOHR**2)
            852.46052          1312.32376          1651.70366
 THE ROTATIONAL SYMMETRY NUMBER IS  1.0
 THE ROTATIONAL CONSTANTS ARE (IN GHZ)
      2.11516     1.37397     1.09165
   1 IMAGINARY FREQUENCY VIBRATION(S) IS(ARE) EXCLUDED
     FROM THE FOLLOWING THERMOCHEMICAL ANALYSIS.
      8 -     60 VIBRATIONAL MODES ARE USED IN THERMOCHEMISTRY.
 THE HARMONIC ZERO POINT ENERGY IS (SCALED BY   1.000)
        0.192360 HARTREE/MOLECULE    42218.051220 CM**-1/MOLECULE 
      120.707587 KCAL/MOL              505.040543 KJ/MOL

               Q               LN Q
 ELEC.     1.00000E+00       0.000000
 TRANS.    6.10192E+07      17.926699
 ROT.      4.86592E+05      13.095182
 VIB.      1.44463E+01       2.670441
 TOT.      4.28933E+14      33.692321

              E         H         G         CV        CP        S
           KJ/MOL    KJ/MOL    KJ/MOL   J/MOL-K   J/MOL-K   J/MOL-K
 ELEC.      0.000     0.000     0.000     0.000     0.000     0.000
 TRANS.     3.718     6.197   -44.439    12.472    20.786   169.836
 ROT.       3.718     3.718   -32.462    12.472    12.472   121.350
 VIB.     516.151   516.151   498.421    93.000    93.000    59.469
 TOTAL    523.588   526.067   421.519   117.943   126.257   350.655
 VIB. THERMAL CORRECTION E(T)-E(0) = H(T)-H(0) =     11110.712 J/MOL

              E         H         G         CV        CP        S
         KCAL/MOL  KCAL/MOL  KCAL/MOL CAL/MOL-K CAL/MOL-K CAL/MOL-K
 ELEC.      0.000     0.000     0.000     0.000     0.000     0.000
 TRANS.     0.889     1.481   -10.621     2.981     4.968    40.592
 ROT.       0.889     0.889    -7.759     2.981     2.981    29.003
 VIB.     123.363   123.363   119.125    22.227    22.227    14.213
 TOTAL    125.141   125.733   100.746    28.189    30.176    83.809
 VIB. THERMAL CORRECTION E(T)-E(0) = H(T)-H(0) =      2655.524 CAL/MOL
 ......END OF NORMAL COORDINATE ANALYSIS......
 STEP CPU TIME =     0.01 TOTAL CPU TIME =         69.2 (      1.2 MIN)
 TOTAL WALL CLOCK TIME=         69.6 SECONDS, CPU UTILIZATION IS    99.50%
               580000  WORDS OF DYNAMIC MEMORY USED
 EXECUTION OF GAMESS TERMINATED NORMALLY Tue Nov 16 04:18:08 2021
 DDI: 263640 bytes (0.3 MB / 0 MWords) used by master data server.

 ----------------------------------------
 CPU timing information for all processes
 ========================================
 0: 68.579 + 0.650 = 69.229
 ----------------------------------------
 ddikick.x: exited gracefully.
----- accounting info -----
Files used on the master node chemcompute-node-0.novalocal were:
-rw-r--r--. 1 chemcomp chemcomp     1503 Nov 16 04:16 /scratch/307378/343418.F05
-rw-rw-r--. 1 chemcomp chemcomp 18001600 Nov 16 04:17 /scratch/307378/343418.F08
-rw-rw-r--. 1 chemcomp chemcomp 70451200 Nov 16 04:18 /scratch/307378/343418.F10
-rw-rw-r--. 1 chemcomp chemcomp   878880 Nov 16 04:18 /scratch/307378/343418.F18
Tue Nov 16 04:18:13 UTC 2021
0.184u 0.128s 1:16.33 0.3%	0+0k 8+216io 0pf+0w
Finishing Up...
Looking for IR data...
Looking for Raman data...
vibramans not found
Looking for thermodynamics data...
Looking for UV-Vis data...
307378
