----- GAMESS execution script 'rungms' -----
This job is running on host chemcompute-node-0.novalocal
under operating system Linux at Tue Nov 16 04:05:40 UTC 2021
SLURM has assigned the following compute nodes to this run:
chemcompute-node-0
Available scratch disk space (Kbyte units) at beginning of the job is
Filesystem     1K-blocks     Used Available Use% Mounted on
/dev/sda1       62903276 16819336  46083940  27% /
GAMESS temporary binary files will be written to /scratch/307373
GAMESS supplementary output files will be written to /data/slurm/343413
Copying input file 343413.inp to your run's scratch directory...
The generated host list is
chemcompute-node-0.novalocal

 Distributed Data Interface kickoff program.
 Initiating 1 compute processes on 1 nodes to run the following command:
 /data/gamess-2019R1-ddi/gamess.00.x 343413 

          ******************************************************
          *         GAMESS VERSION = 30 JUN 2019 (R1)          *
          *             FROM IOWA STATE UNIVERSITY             *
          * M.W.SCHMIDT, K.K.BALDRIDGE, J.A.BOATZ, S.T.ELBERT, *
          *   M.S.GORDON, J.H.JENSEN, S.KOSEKI, N.MATSUNAGA,   *
          *          K.A.NGUYEN, S.J.SU, T.L.WINDUS,           *
          *       TOGETHER WITH M.DUPUIS, J.A.MONTGOMERY       *
          *         J.COMPUT.CHEM.  14, 1347-1363(1993)        *
          **************** 64 BIT LINUX VERSION ****************

  SINCE 1993, STUDENTS AND POSTDOCS WORKING AT IOWA STATE UNIVERSITY
  AND ALSO IN THEIR VARIOUS JOBS AFTER LEAVING ISU HAVE MADE IMPORTANT
  CONTRIBUTIONS TO THE CODE:
     IVANA ADAMOVIC, CHRISTINE AIKENS, YURI ALEXEEV, POOJA ARORA,
     ANDREY ASADCHEV, ROB BELL, PRADIPTA BANDYOPADHYAY, JONATHAN BENTZ,
     COLLEEN BERTONI, BRETT BODE, KURT BRORSEN, CALEB CARLIN, GALINA CHABAN,
     WEI CHEN, CHEOL HO CHOI, PAUL DAY, ALBERT DEFUSCO, NUWAN DESILVA,
     TIM DUDLEY, DMITRI FEDOROV, ALEX FINDLATER, GRAHAM FLETCHER, 
     MARK FREITAG, KURT GLAESEMANN, ANASTASIA GUNINA,
     DAN KEMP, GRANT MERRILL, NORIYUKI MINEZAWA, JONATHAN MULLIN,
     TAKESHI NAGATA, SEAN NEDD, HEATHER NETZLOFF, BOSILJKA NJEGIC, RYAN OLSON,
     MIKE PAK, BUU PHAM,
     SPENCER PRUITT, LUKE ROSKOP, JIM SHOEMAKER, LYUDMILA SLIPCHENKO,
     TONY SMITH, SAROM SOK LEANG, JIE SONG, TETSUYA TAKETSUGU, SIMON WEBB,
     PENG XU, SOOHAENG YOO, FEDERICO ZAHARIEV

  ADDITIONAL CODE HAS BEEN PROVIDED BY COLLABORATORS IN OTHER GROUPS:
     IOWA STATE UNIVERSITY:
          JOE IVANIC, AARON WEST, LAIMUTIS BYTAUTAS, KLAUS RUEDENBERG
     UNIVERSITY OF TOKYO: KIMIHIKO HIRAO, TAKAHITO NAKAJIMA,
          TAKAO TSUNEDA, MUNEAKI KAMIYA, SUSUMU YANAGISAWA,
          KIYOSHI YAGI, MAHITO CHIBA, SEIKEN TOKURA, NAOAKI KAWAKAMI
     UNIVERSITY OF AARHUS: FRANK JENSEN
     UNIVERSITY OF IOWA: VISVALDAS KAIRYS, HUI LI
     NATIONAL INST. OF STANDARDS AND TECHNOLOGY: WALT STEVENS, DAVID GARMER
     UNIVERSITY OF PISA: BENEDETTA MENNUCCI, JACOPO TOMASI
     UNIVERSITY OF MEMPHIS: HENRY KURTZ, PRAKASHAN KORAMBATH
     UNIVERSITY OF ALBERTA: TOBY ZENG, MARIUSZ KLOBUKOWSKI
     UNIVERSITY OF NEW ENGLAND: MARK SPACKMAN
     MIE UNIVERSITY: HIROAKI UMEDA
     NAT. INST. OF ADVANCED INDUSTRIAL SCIENCE AND TECHNOLOGY: KAZUO KITAURA
     MICHIGAN STATE UNIVERSITY:
          KAROL KOWALSKI, MARTA WLOCH, JEFFREY GOUR, JESSE LUTZ,
          WEI LI, JUN SHEN, J. EMILIANO DEUSTUA, PIOTR PIECUCH
     UNIVERSITY OF MINNESOTA:
          YINAN SHU
     UNIVERSITY OF SILESIA: MONIKA MUSIAL, STANISLAW KUCHARSKI
     FACULTES UNIVERSITAIRES NOTRE-DAME DE LA PAIX:
          OLIVIER QUINET, BENOIT CHAMPAGNE
     UNIVERSITY OF CALIFORNIA - SANTA BARBARA: BERNARD KIRTMAN
     INSTITUTE FOR MOLECULAR SCIENCE:
          KAZUYA ISHIMURA, MICHIO KATOUDA, AND SHIGERU NAGASE
     UNIVERSITY OF NOTRE DAME: ANNA POMOGAEVA, DAN CHIPMAN
     KYUSHU UNIVERSITY:
          HARUYUKI NAKANO,
          FENG LONG GU, JACEK KORCHOWIEC, MARCIN MAKOWSKI, AND YURIKO AOKI,
          HIROTOSHI MORI AND EISAKU MIYOSHI
     PENNSYLVANIA STATE UNIVERSITY:
          TZVETELIN IORDANOV, CHET SWALINA, JONATHAN SKONE,
          SHARON HAMMES-SCHIFFER
     WASEDA UNIVERSITY:
          MASATO KOBAYASHI, TOMOKO AKAMA, TSUGUKI TOUMA,
          TAKESHI YOSHIKAWA, YASUHIRO IKABATA, JUNJI SEINO,
          YUYA NAKAJIMA, HIROMI NAKAI
     NANJING UNIVERSITY: SHUHUA LI
     UNIVERSITY OF NEBRASKA:
          PEIFENG SU, DEJUN SI, NANDUN THELLAMUREGE, YALI WANG, HUI LI
     UNIVERSITY OF ZURICH: ROBERTO PEVERATI, KIM BALDRIDGE
     N. COPERNICUS UNIVERSITY AND JACKSON STATE UNIVERSITY:
          MARIA BARYSZ
     UNIVERSITY OF COPENHAGEN: Jimmy Kromann, CASPER STEINMANN
     TOKYO INSTITUTE OF TECHNOLOGY: HIROYA NAKATA
     NAGOYA UNIVERSITY: YOSHIO NISHIMOTO, STEPHAN IRLE
     MOSCOW STATE UNIVERSITY: VLADIMIR MIRONOV
     A.N.NESMEYANOV INSTITUTE OF ORGANOELEMENT COMPOUNDS OF RUSSIAN ACADEMY OF SCIENCES:
          IGOR S. GERASIMOV

 EXECUTION OF GAMESS BEGUN Tue Nov 16 04:05:40 2021

            ECHO OF THE FIRST FEW INPUT CARDS -
 INPUT CARD>!File created by the GAMESS Input Deck Generator Plugin for Avogadro            
 INPUT CARD> $BASIS GBASIS=STO NGAUSS=3 $END                                                
 INPUT CARD> $CONTRL SCFTYP=RHF RUNTYP=OPTIMIZE NZVAR=1 mult=1  ICHARG=0 $END               
 INPUT CARD> $STATPT hssend=.t. OPTTOL=0.0005 NSTEP=50 $END                                 
 INPUT CARD> $STATPT HESS=calc ihrep=5 $END                                                 
 INPUT CARD> $FORCE nvib=2 $END                                                             
 INPUT CARD> $ZMAT DLC=.t. auto=.t. nonvdw(1)=1,6,3,4 $END                                  
 INPUT CARD> $ZMAT IFZMAT(1)=1,1,6,1,3,4 fvalue(1)=2.00,2.00 $END                           
 INPUT CARD>                                                                                
 INPUT CARD> $DATA                                                                          
 INPUT CARD>Title                                                                           
 INPUT CARD>C1                                                                              
 INPUT CARD>C     6.0     7.34281     0.09096    -4.53500                                   
 INPUT CARD>C     6.0     6.07666     0.37500    -4.13624                                   
 INPUT CARD>C     6.0     5.82798     1.49180    -3.15761                                   
 INPUT CARD>C     6.0     7.07094     1.15539    -1.62946                                   
 INPUT CARD>C     6.0     7.57902    -0.23254    -1.90688                                   
 INPUT CARD>C     6.0     8.46382    -0.34829    -2.93474                                   
 INPUT CARD>C     6.0     9.55969     0.64936    -2.92564                                   
 INPUT CARD>C     6.0     9.42851     1.86809    -2.38207                                   
 INPUT CARD>C     6.0     8.13173     2.23659    -1.75695                                   
 INPUT CARD>O     8.0     7.94172     3.39649    -1.39609                                   
 INPUT CARD>H     1.0     7.49740    -0.77780    -5.17956                                   
 INPUT CARD>H     1.0     7.99145     0.95700    -4.70781                                   
 INPUT CARD>H     1.0     5.29443    -0.37049    -4.25502                                   
 INPUT CARD>H     1.0     4.84093     1.42526    -2.69138                                   
 INPUT CARD>H     1.0     6.05538     2.49502    -3.52489                                   
 INPUT CARD>H     1.0     6.47347     1.25773    -0.72099                                   
 INPUT CARD>H     1.0     6.96301    -1.07716    -1.61384                                   
 INPUT CARD>H     1.0     8.74841    -1.35425    -3.26367                                   
 INPUT CARD>H     1.0    10.49893     0.34566    -3.38044                                   
 INPUT CARD>H     1.0    10.21669     2.60843    -2.37824                                   
 INPUT CARD> $END                                                                           
    1000000 WORDS OF MEMORY AVAILABLE

     BASIS OPTIONS
     -------------
     GBASIS=STO          IGAUSS=       3      POLAR=NONE    
     NDFUNC=       0     NFFUNC=       0     DIFFSP=       F
     NPFUNC=       0      DIFFS=       F     BASNAM=        


     RUN TITLE
     ---------
 Title                                                                           

 THE POINT GROUP OF THE MOLECULE IS C1      
 THE ORDER OF THE PRINCIPAL AXIS IS     0

 ATOM      ATOMIC                      COORDINATES (BOHR)
           CHARGE         X                   Y                   Z
 C           6.0    13.8758988799        0.1718894758       -8.5699073543
 C           6.0    11.4832223205        0.7086472454       -7.8163602195
 C           6.0    11.0132852619        2.8190932285       -5.9670176761
 C           6.0    13.3621390756        2.1833705090       -3.0792329080
 C           6.0    14.3222710555       -0.4394368812       -3.6034806915
 C           6.0    15.9943006094       -0.6581726643       -5.5458544452
 C           6.0    18.0651946276        1.2271124674       -5.5286579387
 C           6.0    17.8173003725        3.5301782204       -4.5014595836
 C           6.0    15.3667415061        4.2265422469       -3.3201540741
 O           8.0    15.0076746712        6.4184354200       -2.6382275542
 H           1.0    14.1680316203       -1.4698288733       -9.7879491370
 H           1.0    15.1016507446        1.8084677702       -8.8964709023
 H           1.0    10.0050219612       -0.7001245812       -8.0408218723
 H           1.0     9.1480312257        2.6933508613       -5.0859707288
 H           1.0    11.4430089515        4.7149041339       -6.6610762369
 H           1.0    12.2330844897        2.3767650665       -1.3624735399
 H           1.0    13.1581809498       -2.0355372449       -3.0497153880
 H           1.0    16.5320977282       -2.5591614189       -6.1674420143
 H           1.0    19.8401008643        0.6532026849       -6.3881053179
 H           1.0    19.3067446015        4.9292179582       -4.4942219330

          INTERNUCLEAR DISTANCES (ANGS.)
          ------------------------------

                1 C          2 C          3 C          4 C          5 C     

   1 C       0.0000000    1.3575066 *  2.4807793 *  3.1062980    2.6584699 *
   2 C       1.3575066 *  0.0000000    1.5055898 *  2.8074093 *  2.7561271 *
   3 C       2.4807793 *  1.5055898 *  0.0000000    1.9983402 *  2.7575016 *
   4 C       3.1062980    2.8074093 *  1.9983402 *  0.0000000    1.5038141 *
   5 C       2.6584699 *  2.7561271 *  2.7575016 *  1.5038141 *  0.0000000  
   6 C       2.0026073 *  2.7686248 *  3.2223058    2.4300050 *  1.3611632 *
   7 C       2.7957838 *  3.6976105    3.8326459    2.8513200 *  2.3955528 *
   8 C       3.4847443    4.0671032    3.7022794    2.5753639 *  2.8388493 *
   9 C       3.5977333    3.6537448    2.7971101 *  1.5200403 *  2.5346736 *
  10 O       4.5976057    4.4851168    3.3464449    2.4156259 *  3.6827050  
  11 H       1.0927486 *  2.1061735 *  3.4678998    4.0647634    3.3187957  
  12 H       1.0957292 *  2.0813066 *  2.7147253 *  3.2191514    3.0708814  
  13 H       2.1182978 *  1.0870822 *  2.2264565 *  3.5182187    3.2790461  
  14 H       3.3821139    2.1720256 *  1.0936479 *  2.4846425 *  3.2955846  
  15 H       2.9081442 *  2.2065100 *  1.0922709 *  2.5335006 *  3.5183830  
  16 H       4.0821289    3.5497328    2.5315140 *  1.0921363 *  2.2021536 *
  17 H       3.1689001    3.0425132    3.2048517    2.2352119 *  1.0856904 *
  18 H       2.3834058 *  3.2999897    4.0792353    3.4326143    2.1134298 *
  19 H       3.3703078    4.4864871    4.8146717    3.9335365    3.3213805  
  20 H       4.3873061    5.0218146    4.5951121    3.5451008    3.9052009  

                6 C          7 C          8 C          9 C         10 O     

   1 C       2.0026073 *  2.7957838 *  3.4847443    3.5977333    4.5976057  
   2 C       2.7686248 *  3.6976105    4.0671032    3.6537448    4.4851168  
   3 C       3.2223058    3.8326459    3.7022794    2.7971101 *  3.3464449  
   4 C       2.4300050 *  2.8513200 *  2.5753639 *  1.5200403 *  2.4156259 *
   5 C       1.3611632 *  2.3955528 *  2.8388493 *  2.5346736 *  3.6827050  
   6 C       0.0000000    1.4819984 *  2.4795990 *  2.8599087 *  4.0820840  
   7 C       1.4819984 *  0.0000000    1.3408875 *  2.4339690 *  3.5361099  
   8 C       2.4795990 *  1.3408875 *  0.0000000    1.4860032 *  2.3491930 *
   9 C       2.8599087 *  2.4339690 *  1.4860032 *  0.0000000    1.2295087 *
  10 O       4.0820840    3.5361099    2.3491930 *  1.2295087 *  0.0000000  
  11 H       2.4814639 *  3.3719403    4.3076525    4.6046912    5.6512620  
  12 H       2.2518198 *  2.3937730 *  2.8817170 *  3.2194105    4.1135233  
  13 H       3.4334626    4.5825526    5.0606126    4.5921118    5.4195723  
  14 H       4.0410439    4.7878591    4.6192707    3.5157902    3.8959495  
  15 H       3.7727009    4.0057147    3.6162252    2.7392749 *  2.9837420 *
  16 H       3.3825260    3.8412693    3.4444140    2.1865970 *  2.6806366 *
  17 H       2.1280176 *  3.3829628    3.9170608    3.5167209    4.5846300  
  18 H       1.0959662 *  2.1878968 *  3.4092858    3.9426680    5.1679913  
  19 H       2.1958797 *  1.0868526 *  2.1119505 *  3.4372914    4.4479806  
  20 H       3.4820165    2.1375806 *  1.0813629 *  2.2071077 *  2.6002203 *

               11 H         12 H         13 H         14 H         15 H     

   1 C       1.0927486 *  1.0957292 *  2.1182978 *  3.3821139    2.9081442 *
   2 C       2.1061735 *  2.0813066 *  1.0870822 *  2.1720256 *  2.2065100 *
   3 C       3.4678998    2.7147253 *  2.2264565 *  1.0936479 *  1.0922709 *
   4 C       4.0647634    3.2191514    3.5182187    2.4846425 *  2.5335006 *
   5 C       3.3187957    3.0708814    3.2790461    3.2955846    3.5183830  
   6 C       2.4814639 *  2.2518198 *  3.4334626    4.0410439    3.7727009  
   7 C       3.3719403    2.3937730 *  4.5825526    4.7878591    4.0057147  
   8 C       4.3076525    2.8817170 *  5.0606126    4.6192707    3.6162252  
   9 C       4.6046912    3.2194105    4.5921118    3.5157902    2.7392749 *
  10 O       5.6512620    4.1135233    5.4195723    3.8959495    2.9837420 *
  11 H       0.0000000    1.8644475 *  2.4235826 *  4.2545677    3.9406478  
  12 H       1.8644475 *  0.0000000    3.0399285    3.7697525    2.7410167 *
  13 H       2.4235826 *  3.0399285    0.0000000    2.4239122 *  3.0534050  
  14 H       4.2545677    3.7697525    2.4239122 *  0.0000000    1.8204434 *
  15 H       3.9406478    2.7410167 *  3.0534050    1.8204434 *  0.0000000  
  16 H       5.0070612    4.2766150    4.0657845    2.5643108 *  3.0931442  
  17 H       3.6179481    3.8429346    3.2030257    3.4534652    4.1516713  
  18 H       2.3596515 *  2.8284988 *  3.7256592    4.8292434    4.7050532  
  19 H       3.6753473    2.9022584 *  5.3258409    5.8011468    4.9381931  
  20 H       5.1680253    3.6201948    6.0518519    5.5133242    4.3178894  

               16 H         17 H         18 H         19 H         20 H     

   1 C       4.0821289    3.1689001    2.3834058 *  3.3703078    4.3873061  
   2 C       3.5497328    3.0425132    3.2999897    4.4864871    5.0218146  
   3 C       2.5315140 *  3.2048517    4.0792353    4.8146717    4.5951121  
   4 C       1.0921363 *  2.2352119 *  3.4326143    3.9335365    3.5451008  
   5 C       2.2021536 *  1.0856904 *  2.1134298 *  3.3213805    3.9052009  
   6 C       3.3825260    2.1280176 *  1.0959662 *  2.1958797 *  3.4820165  
   7 C       3.8412693    3.3829628    2.1878968 *  1.0868526 *  2.1375806 *
   8 C       3.4444140    3.9170608    3.4092858    2.1119505 *  1.0813629 *
   9 C       2.1865970 *  3.5167209    3.9426680    3.4372914    2.2071077 *
  10 O       2.6806366 *  4.5846300    5.1679913    4.4479806    2.6002203 *
  11 H       5.0070612    3.6179481    2.3596515 *  3.6753473    5.1680253  
  12 H       4.2766150    3.8429346    2.8284988 *  2.9022584 *  3.6201948  
  13 H       4.0657845    3.2030257    3.7256592    5.3258409    6.0518519  
  14 H       2.5643108 *  3.4534652    4.8292434    5.8011468    5.5133242  
  15 H       3.0931442    4.1516713    4.7050532    4.9381931    4.3178894  
  16 H       0.0000000    2.5472616 *  4.2968608    4.9100788    4.3107498  
  17 H       2.5472616 *  0.0000000    2.4467062 *  4.2009550    4.9753708  
  18 H       4.2968608    2.4467062 *  0.0000000    2.4428773 *  4.3177153  
  19 H       4.9100788    4.2009550    2.4428773 *  0.0000000    2.4908216 *
  20 H       4.3107498    4.9753708    4.3177153    2.4908216 *  0.0000000  

  * ... LESS THAN  3.000


     ATOMIC BASIS SET
     ----------------
 THE CONTRACTED PRIMITIVE FUNCTIONS HAVE BEEN UNNORMALIZED
 THE CONTRACTED BASIS FUNCTIONS ARE NOW NORMALIZED TO UNITY

  SHELL TYPE  PRIMITIVE        EXPONENT          CONTRACTION COEFFICIENT(S)

 C         

      1   S       1            71.6168373    0.154328967295
      1   S       2            13.0450963    0.535328142282
      1   S       3             3.5305122    0.444634542185

      2   L       4             2.9412494   -0.099967229187    0.155916274999
      2   L       5             0.6834831    0.399512826089    0.607683718598
      2   L       6             0.2222899    0.700115468880    0.391957393099

 C         

      3   S       7            71.6168373    0.154328967295
      3   S       8            13.0450963    0.535328142282
      3   S       9             3.5305122    0.444634542185

      4   L      10             2.9412494   -0.099967229187    0.155916274999
      4   L      11             0.6834831    0.399512826089    0.607683718598
      4   L      12             0.2222899    0.700115468880    0.391957393099

 C         

      5   S      13            71.6168373    0.154328967295
      5   S      14            13.0450963    0.535328142282
      5   S      15             3.5305122    0.444634542185

      6   L      16             2.9412494   -0.099967229187    0.155916274999
      6   L      17             0.6834831    0.399512826089    0.607683718598
      6   L      18             0.2222899    0.700115468880    0.391957393099

 C         

      7   S      19            71.6168373    0.154328967295
      7   S      20            13.0450963    0.535328142282
      7   S      21             3.5305122    0.444634542185

      8   L      22             2.9412494   -0.099967229187    0.155916274999
      8   L      23             0.6834831    0.399512826089    0.607683718598
      8   L      24             0.2222899    0.700115468880    0.391957393099

 C         

      9   S      25            71.6168373    0.154328967295
      9   S      26            13.0450963    0.535328142282
      9   S      27             3.5305122    0.444634542185

     10   L      28             2.9412494   -0.099967229187    0.155916274999
     10   L      29             0.6834831    0.399512826089    0.607683718598
     10   L      30             0.2222899    0.700115468880    0.391957393099

 C         

     11   S      31            71.6168373    0.154328967295
     11   S      32            13.0450963    0.535328142282
     11   S      33             3.5305122    0.444634542185

     12   L      34             2.9412494   -0.099967229187    0.155916274999
     12   L      35             0.6834831    0.399512826089    0.607683718598
     12   L      36             0.2222899    0.700115468880    0.391957393099

 C         

     13   S      37            71.6168373    0.154328967295
     13   S      38            13.0450963    0.535328142282
     13   S      39             3.5305122    0.444634542185

     14   L      40             2.9412494   -0.099967229187    0.155916274999
     14   L      41             0.6834831    0.399512826089    0.607683718598
     14   L      42             0.2222899    0.700115468880    0.391957393099

 C         

     15   S      43            71.6168373    0.154328967295
     15   S      44            13.0450963    0.535328142282
     15   S      45             3.5305122    0.444634542185

     16   L      46             2.9412494   -0.099967229187    0.155916274999
     16   L      47             0.6834831    0.399512826089    0.607683718598
     16   L      48             0.2222899    0.700115468880    0.391957393099

 C         

     17   S      49            71.6168373    0.154328967295
     17   S      50            13.0450963    0.535328142282
     17   S      51             3.5305122    0.444634542185

     18   L      52             2.9412494   -0.099967229187    0.155916274999
     18   L      53             0.6834831    0.399512826089    0.607683718598
     18   L      54             0.2222899    0.700115468880    0.391957393099

 O         

     19   S      55           130.7093214    0.154328967295
     19   S      56            23.8088661    0.535328142282
     19   S      57             6.4436083    0.444634542185

     20   L      58             5.0331513   -0.099967229187    0.155916274999
     20   L      59             1.1695961    0.399512826089    0.607683718598
     20   L      60             0.3803890    0.700115468880    0.391957393099

 H         

     21   S      61             3.4252509    0.154328967295
     21   S      62             0.6239137    0.535328142282
     21   S      63             0.1688554    0.444634542185

 H         

     22   S      64             3.4252509    0.154328967295
     22   S      65             0.6239137    0.535328142282
     22   S      66             0.1688554    0.444634542185

 H         

     23   S      67             3.4252509    0.154328967295
     23   S      68             0.6239137    0.535328142282
     23   S      69             0.1688554    0.444634542185

 H         

     24   S      70             3.4252509    0.154328967295
     24   S      71             0.6239137    0.535328142282
     24   S      72             0.1688554    0.444634542185

 H         

     25   S      73             3.4252509    0.154328967295
     25   S      74             0.6239137    0.535328142282
     25   S      75             0.1688554    0.444634542185

 H         

     26   S      76             3.4252509    0.154328967295
     26   S      77             0.6239137    0.535328142282
     26   S      78             0.1688554    0.444634542185

 H         

     27   S      79             3.4252509    0.154328967295
     27   S      80             0.6239137    0.535328142282
     27   S      81             0.1688554    0.444634542185

 H         

     28   S      82             3.4252509    0.154328967295
     28   S      83             0.6239137    0.535328142282
     28   S      84             0.1688554    0.444634542185

 H         

     29   S      85             3.4252509    0.154328967295
     29   S      86             0.6239137    0.535328142282
     29   S      87             0.1688554    0.444634542185

 H         

     30   S      88             3.4252509    0.154328967295
     30   S      89             0.6239137    0.535328142282
     30   S      90             0.1688554    0.444634542185

 TOTAL NUMBER OF BASIS SET SHELLS             =   30
 NUMBER OF CARTESIAN GAUSSIAN BASIS FUNCTIONS =   60
 NUMBER OF ELECTRONS                          =   72
 CHARGE OF MOLECULE                           =    0
 SPIN MULTIPLICITY                            =    1
 NUMBER OF OCCUPIED ORBITALS (ALPHA)          =   36
 NUMBER OF OCCUPIED ORBITALS (BETA )          =   36
 TOTAL NUMBER OF ATOMS                        =   20
 THE NUCLEAR REPULSION ENERGY IS      505.5478352564

     $CONTRL OPTIONS
     ---------------
 SCFTYP=RHF          RUNTYP=OPTIMIZE     EXETYP=RUN     
 MPLEVL=       0     CITYP =NONE         CCTYP =NONE         VBTYP =NONE    
 DFTTYP=NONE         TDDFT =NONE    
 MULT  =       1     ICHARG=       0     NZVAR =       1     COORD =UNIQUE  
 PP    =NONE         RELWFN=NONE         LOCAL =NONE         NUMGRD=       F
 ISPHER=      -1     NOSYM =       0     MAXIT =      30     UNITS =ANGS    
 PLTORB=       F     MOLPLT=       F     AIMPAC=       F     FRIEND=        
 NPRINT=       7     IREST =       0     GEOM  =INPUT   
 NORMF =       0     NORMP =       0     ITOL  =      20     ICUT  =       9
 INTTYP=BEST         GRDTYP=BEST         QMTTOL= 1.0E-06

     $SYSTEM OPTIONS
     ---------------
  REPLICATED MEMORY=     1000000 WORDS (ON EVERY NODE).
 DISTRIBUTED MEMDDI=           0 MILLION WORDS IN AGGREGATE,
 MEMDDI DISTRIBUTED OVER   1 PROCESSORS IS           0 WORDS/PROCESSOR.
 TOTAL MEMORY REQUESTED ON EACH PROCESSOR=     1000000 WORDS.
 TIMLIM=      525600.00 MINUTES, OR     365.0 DAYS.
 PARALL= F  BALTYP=  DLB     KDIAG=    0  COREFL= F
 MXSEQ2=     300 MXSEQ3=     150  mem10=         0

          ----------------
          PROPERTIES INPUT
          ----------------

     MOMENTS            FIELD           POTENTIAL          DENSITY
 IEMOM =       1   IEFLD =       0   IEPOT =       0   IEDEN =       0
 WHERE =COMASS     WHERE =NUCLEI     WHERE =NUCLEI     WHERE =NUCLEI  
 OUTPUT=BOTH       OUTPUT=BOTH       OUTPUT=BOTH       OUTPUT=BOTH    
 IEMINT=       0   IEFINT=       0                     IEDINT=       0
                                                       MORB  =       0
          EXTRAPOLATION IN EFFECT
          SOSCF IN EFFECT
 ORBITAL PRINTING OPTION: NPREO=     1    60     2     1

     -------------------------------
     INTEGRAL TRANSFORMATION OPTIONS
     -------------------------------
     NWORD  =            0
     CUTOFF = 1.0E-09     MPTRAN =       0
     DIRTRF =       F     AOINTS =DUP     

          ----------------------
          INTEGRAL INPUT OPTIONS
          ----------------------
 NOPK  =       1 NORDER=       0 SCHWRZ=       T


 -----------------------------------------------
  STATISTICS ON AUTOMATIC COORDINATE GENERATION 
 -----------------------------------------------
  NUMBER OF USER SPECIFIED BONDS                             2
  NUMBER OF BONDS                                           21
  NUMBER OF ANGLES                                          39
  NUMBER OF TORSIONS                                        62
  NUMBER OF EXTRA COORD.                                     0
  NUMBER OF EXTRA COORD. FOR CONSTRAINTS                     0
  NUMBER OF CONSTRAINED COORD.                               2

  TOTAL NUMBER OF PRIMITIVES                               122
 -----------------------------------------------

   --- ENCODED Z MATRIX ---
 COORD  TYPE   I   J   K   L   M   N
    1      1    1   6
    2      1    3   4
    3      1    1   2
    4      1    1  12
    5      1    1  11
    6      1    2  13
    7      1    2   3
    8      1    3  14
    9      1    3  15
   10      1    4   9
   11      1    4   5
   12      1    4  16
   13      1    5   6
   14      1    5  17
   15      1    6   7
   16      1    6  18
   17      1    7   8
   18      1    7  19
   19      1    8  20
   20      1    8   9
   21      1    9  10
   22      2    1   2  13
   23      2    1   6   7
   24      2    1   6   5
   25      2    1   6  18
   26      2    1   2   3
   27      2    2   1  12
   28      2    2   1  11
   29      2    2   3  15
   30      2    2   3   4
   31      2    2   1   6
   32      2    2   3  14
   33      2    3   2  13
   34      2    3   4  16
   35      2    3   4   5
   36      2    3   4   9
   37      2    4   5  17
   38      2    4   5   6
   39      2    4   9  10
   40      2    4   9   8
   41      2    4   3  15
   42      2    4   3  14
   43      2    5   6   7
   44      2    5   4  16
   45      2    5   4   9
   46      2    5   6  18
   47      2    6   5  17
   48      2    6   1  12
   49      2    6   1  11
   50      2    6   7  19
   51      2    6   7   8
   52      2    7   8  20
   53      2    7   8   9
   54      2    7   6  18
   55      2    8   9  10
   56      2    8   7  19
   57      2    9   4  16
   58      2    9   8  20
   59      2   11   1  12
   60      2   14   3  15
   61      3    1   6   5  17
   62      3    1   6   5   4
   63      3    1   2   3  15
   64      3    1   2   3   4
   65      3    1   2   3  14
   66      3    1   6   7   8
   67      3    1   6   7  19
   68      3    2   3   4   9
   69      3    2   1   6  18
   70      3    2   1   6   5
   71      3    2   1   6   7
   72      3    2   3   4  16
   73      3    2   3   4   5
   74      3    3   4   9  10
   75      3    3   4   9   8
   76      3    3   4   5  17
   77      3    3   4   5   6
   78      3    3   2   1  11
   79      3    3   2   1   6
   80      3    3   2   1  12
   81      3    4   3   2  13
   82      3    4   9   8  20
   83      3    4   9   8   7
   84      3    4   5   6  18
   85      3    4   5   6   7
   86      3    5   4   3  15
   87      3    5   4   3  14
   88      3    5   6   1  11
   89      3    5   6   7  19
   90      3    5   6   7   8
   91      3    5   6   1  12
   92      3    5   4   9   8
   93      3    5   4   9  10
   94      3    6   5   4  16
   95      3    6   5   4   9
   96      3    6   7   8   9
   97      3    6   7   8  20
   98      3    6   1   2  13
   99      3    7   8   9  10
  100      3    7   6   1  11
  101      3    7   6   1  12
  102      3    7   6   5  17
  103      3    8   7   6  18
  104      3    8   9   4  16
  105      3    9   4   5  17
  106      3    9   8   7  19
  107      3    9   4   3  15
  108      3    9   4   3  14
  109      3   10   9   8  20
  110      3   10   9   4  16
  111      3   11   1   2  13
  112      3   11   1   6  18
  113      3   12   1   6  18
  114      3   12   1   2  13
  115      3   13   2   3  15
  116      3   13   2   3  14
  117      3   14   3   4  16
  118      3   15   3   4  16
  119      3   16   4   5  17
  120      3   17   5   6  18
  121      3   18   6   7  19
  122      3   19   7   8  20

          INDEP./SYM. INTERNAL COORDINATES
          --------------------------------
 CRD  1=   1.0000 (  1)
 CRD  2=   1.0000 (  2)
 CRD  3=   0.1192 (  5) -0.1170 (  8) -0.2982 ( 10)  0.2926 ( 15)  0.2414 ( 17)
          -0.1561 ( 20)  0.1113 ( 22)  0.1054 ( 24) -0.1273 ( 25)  0.1334 ( 30)
          -0.1044 ( 31)  0.1325 ( 34) -0.1119 ( 35) -0.1636 ( 39) -0.1223 ( 42)
          -0.1509 ( 43)  0.1531 ( 45)  0.1389 ( 49)  0.1109 ( 50)  0.1799 ( 52)
           0.1485 ( 54)  0.1442 ( 55) -0.1395 ( 57) -0.1839 ( 58) -0.1085 ( 61)
          -0.1078 ( 62)  0.1930 ( 68)  0.1735 ( 71) -0.1105 ( 76) -0.1085 ( 77)
          -0.1080 ( 79)  0.1331 (100)  0.1357 (101)  0.1161 (107)  0.1361 (108)
 CRD  4=  -0.2124 (  3)  0.1158 (  6) -0.1512 (  7)  0.1603 ( 10) -0.1780 ( 17)
          -0.2409 ( 20)  0.1384 ( 22) -0.3426 ( 26) -0.1119 ( 29)  0.2663 ( 30)
           0.1857 ( 31)  0.2037 ( 33)  0.1167 ( 37) -0.2214 ( 38)  0.1562 ( 39)
          -0.1384 ( 41) -0.1088 ( 48)  0.1513 ( 51) -0.1007 ( 53) -0.2046 ( 55)
          -0.1562 ( 56) -0.1023 ( 91) -0.1052 ( 98) -0.1114 (101)
 CRD  5=   0.1777 (  3) -0.2057 (  7) -0.1092 (  9) -0.1247 ( 10) -0.1412 ( 11)
           0.1033 ( 13) -0.1454 ( 17)  0.1010 ( 22)  0.1115 ( 25) -0.1022 ( 28)
           0.1260 ( 32) -0.1171 ( 34) -0.1684 ( 42)  0.1040 ( 47)  0.1475 ( 48)
           0.1617 ( 49)  0.1340 ( 65) -0.1825 ( 66) -0.1453 ( 67) -0.1600 ( 74)
          -0.1952 ( 75)  0.1682 ( 78)  0.1312 ( 82)  0.1466 ( 83)  0.1059 ( 85)
          -0.1742 ( 89) -0.2114 ( 90) -0.2089 ( 92) -0.1737 ( 93)  0.1004 ( 95)
           0.1060 ( 97)  0.1141 ( 99)  0.1706 (111)  0.1649 (116) -0.1068 (120)
 CRD  6=  -0.3213 (  3) -0.1469 (  5) -0.3105 (  7) -0.1489 (  8) -0.2813 ( 10)
          -0.1018 ( 12) -0.1577 ( 13) -0.2541 ( 15) -0.1936 ( 39)  0.1645 ( 41)
          -0.1438 ( 42)  0.1409 ( 48) -0.2081 ( 49) -0.1434 ( 50)  0.1712 ( 55)
           0.1139 ( 56) -0.1808 ( 64)  0.1008 ( 68)  0.1721 ( 79) -0.1789 ( 81)
           0.1784 ( 98)
 CRD  7=  -0.1007 (  3) -0.1044 (  7) -0.1346 ( 11)  0.1681 ( 17)  0.1982 ( 19)
           0.4385 ( 20) -0.1460 ( 28) -0.1049 ( 32) -0.1045 ( 37) -0.3848 ( 39)
           0.1174 ( 42)  0.1220 ( 49) -0.1506 ( 50) -0.1799 ( 53)  0.3626 ( 55)
           0.1155 ( 56)  0.2721 ( 58)  0.1044 ( 64)
 CRD  8=   0.1269 ( 10)  0.2346 ( 11) -0.3223 ( 13) -0.2430 ( 15)  0.1279 ( 17)
          -0.1341 ( 18)  0.1909 ( 21)  0.1576 ( 22) -0.1405 ( 33)  0.3126 ( 37)
           0.1102 ( 39) -0.1823 ( 40) -0.1196 ( 41) -0.3433 ( 47) -0.2762 ( 50)
           0.1415 ( 51)  0.1346 ( 56)  0.1141 ( 68) -0.1177 ( 89) -0.1033 ( 90)
           0.1376 (102)
 CRD  9=  -0.1259 (  3) -0.2073 (  7) -0.1188 (  9)  0.2976 ( 10) -0.1254 ( 13)
           0.2984 ( 15)  0.2604 ( 17)  0.2148 ( 19) -0.1241 ( 24)  0.1048 ( 29)
          -0.1401 ( 34) -0.1287 ( 41) -0.1158 ( 48)  0.1668 ( 52) -0.1214 ( 53)
          -0.1325 ( 55) -0.1382 ( 61) -0.1170 ( 62)  0.1172 ( 65)  0.1801 ( 76)
           0.1497 ( 77)  0.1028 ( 80) -0.1171 ( 85) -0.1281 ( 93)  0.1449 ( 95)
          -0.1384 (102)  0.1753 (105)  0.1337 (114) -0.1078 (115)
 CRD 10=  -0.1031 ( 10)  0.3222 ( 17)  0.1245 ( 18) -0.1796 ( 20) -0.1024 ( 22)
          -0.1306 ( 28) -0.2460 ( 50) -0.1246 ( 51)  0.3886 ( 52) -0.1574 ( 55)
           0.3705 ( 56) -0.3992 ( 58)  0.1133 ( 62)
 CRD 11=   0.1659 (  6)  0.4655 (  7)  0.1954 ( 11)  0.1050 ( 14)  0.1084 ( 17)
           0.1206 ( 19) -0.2351 ( 22) -0.1312 ( 26)  0.2169 ( 32)  0.3633 ( 33)
           0.1178 ( 37) -0.1608 ( 39) -0.1830 ( 42) -0.1647 ( 50)  0.1152 ( 52)
          -0.1213 ( 53)  0.1346 ( 65) -0.1009 ( 75)  0.1367 ( 87)  0.1771 (108)
          -0.1006 (115)
 CRD 12=  -0.2409 (  3) -0.1199 (  4)  0.1087 (  7) -0.1840 ( 10) -0.2014 ( 11)
          -0.1159 ( 12) -0.2690 ( 13) -0.2965 ( 14) -0.1043 ( 15) -0.1546 ( 17)
          -0.1974 ( 19) -0.2126 ( 22)  0.1012 ( 23) -0.1628 ( 28)  0.1517 ( 29)
           0.1310 ( 31)  0.2394 ( 33)  0.1669 ( 38) -0.2045 ( 41) -0.1001 ( 47)
          -0.2255 ( 48)  0.1559 ( 50) -0.1009 ( 52)  0.1385 ( 53)  0.1363 ( 64)
          -0.1191 ( 79) -0.1360 ( 98)
 CRD 13=   0.4023 (  3)  0.2143 (  6) -0.1991 ( 11) -0.1409 ( 14) -0.1786 ( 15)
           0.3003 ( 22) -0.1628 ( 26)  0.1509 ( 28) -0.1505 ( 33) -0.1617 ( 37)
          -0.1690 ( 41)  0.1148 ( 46)  0.1280 ( 47) -0.1747 ( 48) -0.1640 ( 49)
          -0.1740 ( 50)  0.1366 ( 56) -0.1905 ( 78)  0.1039 ( 81) -0.1396 ( 88)
          -0.1389 (100) -0.1187 (111)  0.1354 (114)
 CRD 14=  -0.3247 ( 11) -0.1406 ( 12) -0.3098 ( 13) -0.1845 ( 16) -0.1307 ( 17)
          -0.2193 ( 18)  0.2039 ( 19) -0.1567 ( 20) -0.2326 ( 21)  0.1295 ( 24)
          -0.1193 ( 30) -0.1150 ( 31)  0.1235 ( 35)  0.1592 ( 40) -0.1413 ( 44)
          -0.1527 ( 46)  0.1011 ( 48)  0.1554 ( 51)  0.1505 ( 52) -0.2973 ( 53)
          -0.1214 ( 55)  0.1472 ( 58) -0.1007 ( 99)
 CRD 15=   0.1405 (  3)  0.1152 (  4) -0.1111 (  7)  0.1403 (  8) -0.1264 ( 10)
           0.1787 ( 11) -0.2130 ( 12) -0.2041 ( 13)  0.1457 ( 15)  0.1645 ( 16)
          -0.1058 ( 20)  0.1726 ( 27) -0.1962 ( 29) -0.1046 ( 39)  0.1467 ( 41)
          -0.1670 ( 48)  0.1078 ( 50)  0.1477 ( 54)  0.1487 ( 55) -0.1733 ( 56)
          -0.1644 ( 57)  0.1882 ( 63)  0.1059 ( 64) -0.1282 ( 69) -0.1024 ( 70)
          -0.1538 ( 72) -0.1422 ( 73)  0.2093 ( 80)  0.1051 ( 81)  0.1033 ( 94)
           0.1199 (101)  0.1266 (107)  0.2028 (114)  0.1875 (115)  0.1109 (119)
 CRD 16=  -0.1236 (  9) -0.1062 ( 10)  0.3130 ( 12) -0.2675 ( 16)  0.1175 ( 18)
          -0.2355 ( 21)  0.1592 ( 27) -0.1001 ( 28) -0.1598 ( 29)  0.1000 ( 32)
           0.2253 ( 37)  0.1714 ( 40) -0.1261 ( 42)  0.1848 ( 44) -0.1580 ( 45)
          -0.2645 ( 47) -0.1256 ( 48)  0.1421 ( 49)  0.1221 ( 66)  0.1051 ( 67)
          -0.1412 ( 68) -0.1006 ( 71) -0.1060 ( 72)  0.1433 ( 75)  0.1659 ( 86)
           0.1449 ( 87)  0.1408 ( 91)  0.1430 (104)  0.1150 (105)
 CRD 17=   0.1046 (  3)  0.1815 (  4) -0.1319 (  5)  0.3421 (  6) -0.1160 (  8)
           0.1064 (  9) -0.1366 ( 13) -0.1712 ( 16)  0.3075 ( 18) -0.1639 ( 19)
           0.2135 ( 21) -0.1511 ( 26) -0.1114 ( 40) -0.1004 ( 42)  0.1062 ( 43)
          -0.1281 ( 46)  0.1196 ( 48)  0.1031 ( 50) -0.1466 ( 51)  0.1217 ( 53)
           0.1069 ( 63)  0.1089 ( 68) -0.1772 ( 69) -0.1772 ( 71)  0.1107 ( 72)
          -0.1297 ( 80) -0.1111 ( 83) -0.1174 ( 99)  0.1035 (106)
 CRD 18=   0.1426 (  8)  0.1532 ( 12)  0.1031 ( 15) -0.1177 ( 16)  0.1363 ( 18)
          -0.1452 ( 25)  0.1402 ( 28) -0.1164 ( 32) -0.1547 ( 41)  0.2214 ( 42)
           0.1455 ( 48) -0.2067 ( 49) -0.1170 ( 63) -0.2060 ( 65) -0.2170 ( 78)
          -0.1281 ( 80)  0.1128 ( 83)  0.1479 ( 84) -0.1226 ( 90) -0.1432 ( 92)
          -0.1212 ( 93) -0.1504 (103) -0.1571 (104) -0.1351 (110) -0.2076 (111)
          -0.1187 (114) -0.1296 (115) -0.2186 (116) -0.1091 (117)  0.1145 (119)
           0.1508 (120) -0.1237 (121)
 CRD 19=   0.1225 (  5) -0.1482 (  6) -0.3685 ( 12)  0.3415 ( 14) -0.4661 ( 16)
           0.1756 ( 18) -0.1414 ( 19)  0.1536 ( 21) -0.1548 ( 38) -0.1006 ( 48)
           0.1193 ( 66)  0.1233 ( 70)  0.1019 ( 85)  0.1012 ( 88)  0.1299 ( 91)
          -0.1284 ( 96) -0.1166 ( 97)  0.1034 (102) -0.1024 (106)
 CRD 20=  -0.1438 (  4) -0.1659 (  8)  0.3024 (  9)  0.2853 ( 12) -0.1610 ( 16)
          -0.1323 ( 25)  0.1096 ( 34) -0.1150 ( 36)  0.2351 ( 41) -0.1057 ( 44)
          -0.1972 ( 48)  0.2072 ( 63)  0.1220 ( 72) -0.1186 ( 75)  0.1732 ( 80)
           0.1155 ( 82)  0.1269 ( 83)  0.1263 ( 84) -0.1122 ( 90) -0.1423 ( 92)
          -0.1145 ( 93) -0.1725 (103) -0.2156 (104) -0.1878 (110)  0.1905 (114)
           0.1892 (115) -0.1454 (121)
 CRD 21=   0.3459 (  4) -0.2302 (  5)  0.2900 (  6) -0.1873 (  8)  0.1609 (  9)
           0.1400 ( 16)  0.1412 ( 27) -0.1051 ( 28)  0.1379 ( 29) -0.1159 ( 34)
           0.1346 ( 62)  0.1004 ( 66) -0.1091 ( 69) -0.1250 ( 77)  0.1265 ( 83)
           0.1819 ( 84)  0.1183 ( 85)  0.1067 ( 91) -0.2183 ( 94) -0.1560 ( 95)
          -0.1761 ( 96) -0.1434 ( 97)  0.1341 ( 99)  0.1053 (100)  0.1292 (101)
          -0.1600 (106)  0.1032 (109) -0.1516 (119)  0.1129 (120) -0.1272 (122)
 CRD 22=  -0.2114 (  4) -0.2957 (  6) -0.1659 (  9) -0.2706 ( 14)  0.1163 ( 16)
           0.1024 ( 18)  0.1431 ( 28)  0.1512 ( 32) -0.2138 ( 42) -0.1987 ( 49)
           0.1207 ( 62)  0.1559 ( 63)  0.1060 ( 64)  0.2620 ( 65) -0.1207 ( 77)
          -0.2319 ( 78) -0.1002 ( 79) -0.1849 ( 80)  0.1005 ( 85) -0.1402 ( 94)
          -0.1246 ( 95) -0.1527 (111) -0.1186 (112) -0.1070 (113) -0.1057 (114)
           0.1864 (116) -0.1013 (119)
 CRD 23=  -0.5051 (  4) -0.6992 (  5)  0.1521 ( 14)  0.1500 ( 27) -0.2160 ( 59)
          -0.1060 ( 80)  0.1766 ( 91)  0.1752 (101)  0.1840 (113)
 CRD 24=  -0.2654 (  4)  0.1666 (  5) -0.2297 (  8)  0.3999 (  9) -0.1239 ( 10)
           0.1352 ( 11)  0.1539 ( 18) -0.2352 ( 21)  0.1021 ( 28)  0.1116 ( 29)
          -0.1669 ( 32)  0.1216 ( 65) -0.1774 ( 86) -0.2279 ( 87) -0.1453 ( 88)
          -0.1221 ( 91) -0.1393 (100) -0.1160 (101) -0.1734 (107) -0.2239 (108)
          -0.1535 (112) -0.1303 (113)  0.1134 (116) -0.2353 (117) -0.1848 (118)
 CRD 25=   0.6965 (  8)  0.5391 (  9)  0.2322 ( 60) -0.1301 ( 63)  0.1487 ( 86)
           0.1441 (107) -0.1195 (115)  0.1483 (118)
 CRD 26=  -0.3057 (  4)  0.2319 (  6) -0.3351 ( 14)  0.1573 ( 18)  0.1183 ( 21)
           0.1224 ( 42)  0.1373 ( 49) -0.1138 ( 59) -0.1510 ( 63) -0.1327 ( 64)
          -0.2529 ( 65)  0.2980 ( 78)  0.1311 ( 79)  0.1666 ( 80)  0.1023 ( 87)
          -0.1763 ( 88) -0.1843 (100)  0.1077 (108)  0.2116 (111) -0.1996 (112)
          -0.1651 (116)  0.1075 (117)
 CRD 27=  -0.2190 ( 12) -0.1827 ( 25) -0.1070 ( 34) -0.1191 ( 66) -0.2525 ( 82)
          -0.1473 ( 83)  0.2231 ( 84)  0.1297 ( 85) -0.1338 ( 89) -0.1779 ( 90)
           0.1064 ( 92) -0.1750 ( 94) -0.1079 ( 95)  0.1907 ( 96)  0.3021 ( 97)
          -0.1181 ( 99) -0.2849 (103)  0.1722 (104)  0.1450 (106) -0.2233 (109)
           0.1406 (110) -0.1348 (119)  0.1904 (120) -0.2407 (121)  0.2564 (122)
 CRD 28=   0.1801 ( 10)  0.3144 ( 12) -0.1820 ( 16) -0.1026 ( 17) -0.4034 ( 18)
          -0.3115 ( 19)  0.2586 ( 21) -0.1363 ( 34) -0.2667 ( 39)  0.1002 ( 47)
           0.2859 ( 52)  0.2568 ( 55) -0.2759 ( 58) -0.1143 ( 94)  0.1059 (104)
          -0.1041 (119)
 CRD 29=  -0.1655 ( 10)  0.1239 ( 11) -0.1543 ( 14) -0.1986 ( 15) -0.3953 ( 16)
           0.5820 ( 19)  0.1046 ( 20)  0.2587 ( 21)  0.2665 ( 50)  0.1107 ( 52)
          -0.2513 ( 56) -0.1405 ( 58)
 CRD 30=  -0.2613 ( 12) -0.1329 ( 14)  0.1177 ( 41)  0.1140 ( 48) -0.1252 ( 61)
           0.1887 ( 63)  0.2349 ( 67) -0.2210 ( 74)  0.1211 ( 76) -0.1937 ( 80)
          -0.2160 ( 82)  0.2378 ( 89) -0.2582 ( 93)  0.2305 ( 97)  0.2467 ( 99)
          -0.1661 (102)  0.1718 (105) -0.2333 (106) -0.1599 (110) -0.2032 (114)
           0.1903 (115)  0.1309 (121)
 CRD 31=   0.1045 (  4) -0.1554 (  5)  0.1202 (  7)  0.1004 (  8)  0.1006 ( 10)
           0.2292 ( 11)  0.2694 ( 12) -0.2209 ( 13) -0.2867 ( 16)  0.2433 ( 17)
           0.2457 ( 18) -0.2590 ( 20) -0.2757 ( 21)  0.1336 ( 22) -0.1243 ( 33)
          -0.2067 ( 37)  0.2190 ( 47) -0.1652 ( 52)  0.1674 ( 58) -0.1184 (102)
           0.1121 (108)
 CRD 32=   0.2426 (  4) -0.1860 (  5) -0.4828 (  6) -0.1888 (  8)  0.2333 (  9)
           0.1465 ( 10) -0.3654 ( 14)  0.1540 ( 15) -0.1125 ( 17)  0.1853 ( 18)
          -0.1618 ( 19)  0.2248 ( 21)  0.1025 ( 37) -0.1052 ( 54)  0.1022 ( 94)
           0.1351 (113) -0.1264 (118)
 CRD 33=   0.3029 (  3)  0.1924 (  5) -0.3101 (  7) -0.1182 (  8)  0.1440 ( 10)
          -0.1088 ( 15)  0.1489 ( 17)  0.1654 ( 18) -0.1985 ( 20) -0.1236 ( 21)
          -0.3352 ( 22)  0.1029 ( 28) -0.1190 ( 32)  0.3519 ( 33)  0.1109 ( 55)
          -0.1060 ( 56) -0.1665 ( 59)  0.1343 ( 60)  0.1274 ( 91)  0.1570 (101)
           0.1281 (107)  0.1877 (113) -0.1226 (115) -0.1000 (116)  0.1391 (118)
 CRD 34=   0.1511 (  3) -0.1351 (  7) -0.2232 ( 10)  0.1373 ( 11) -0.1154 ( 13)
           0.2508 ( 15) -0.1059 ( 16) -0.2271 ( 18) -0.1112 ( 19)  0.1351 ( 20)
           0.1864 ( 21)  0.1127 ( 33) -0.2101 ( 37)  0.1962 ( 39)  0.1204 ( 44)
          -0.1288 ( 46)  0.2071 ( 47) -0.2124 ( 50) -0.1823 ( 52)  0.1291 ( 54)
          -0.2740 ( 55)  0.2782 ( 56) -0.1376 ( 57)  0.2037 ( 58) -0.1127 (112)
 CRD 35=   0.1919 ( 10)  0.1662 ( 11) -0.2854 ( 12)  0.2082 ( 13) -0.2691 ( 14)
           0.1417 ( 15) -0.2747 ( 16)  0.2278 ( 17) -0.3439 ( 18) -0.2524 ( 19)
           0.2379 ( 20) -0.4129 ( 21)  0.1320 ( 82) -0.1262 ( 97)
 CRD 36=   0.1215 (  3)  0.1448 (  4) -0.4490 (  6)  0.3331 ( 14) -0.1307 ( 15)
          -0.1459 ( 18)  0.1075 ( 19) -0.1803 ( 21) -0.1389 ( 26) -0.1033 ( 40)
           0.1059 ( 53) -0.1573 ( 69)  0.1623 ( 72)  0.1255 ( 87) -0.1439 ( 88)
          -0.1363 (100)  0.1164 (108)  0.1113 (111) -0.2065 (112) -0.1239 (113)
           0.2000 (117)  0.1218 (118)
 CRD 37=   0.1656 (  8) -0.1855 (  9) -0.1466 ( 14) -0.1128 ( 18)  0.1407 ( 20)
           0.1049 ( 25)  0.1144 ( 29)  0.1599 ( 34) -0.1513 ( 42) -0.1089 ( 44)
           0.1383 ( 65)  0.1041 ( 67) -0.2250 ( 81) -0.1962 ( 82) -0.1394 ( 86)
           0.2039 ( 97)  0.2359 ( 98) -0.1155 (109) -0.1799 (110)  0.1431 (111)
           0.2815 (114) -0.2449 (115)  0.1577 (121)
 CRD 38=   0.1269 (  3) -0.1539 (  7) -0.1241 ( 17) -0.1279 ( 21) -0.1719 ( 25)
          -0.1290 ( 28)  0.1194 ( 32)  0.1331 ( 34) -0.1394 ( 41) -0.1123 ( 42)
          -0.1077 ( 44)  0.1489 ( 48)  0.1415 ( 49) -0.1039 ( 58) -0.1156 ( 63)
           0.1321 ( 65)  0.1048 ( 74)  0.1557 ( 78) -0.1299 ( 80)  0.2276 ( 84)
           0.1404 ( 89)  0.1735 ( 93)  0.1964 ( 94) -0.1350 ( 99) -0.2095 (103)
          -0.1846 (104) -0.1510 (106) -0.1447 (109)  0.1068 (111) -0.1788 (114)
           0.1858 (116)  0.2171 (119)  0.2135 (120) -0.1189 (121) -0.1399 (122)
 CRD 39=   0.1013 (  4)  0.1151 (  7)  0.2526 ( 11) -0.2720 ( 13)  0.1746 ( 15)
          -0.4387 ( 17)  0.1928 ( 18)  0.3670 ( 20) -0.1718 ( 21) -0.1214 ( 37)
           0.1285 ( 47) -0.1075 ( 50)  0.2274 ( 52) -0.2365 ( 58)  0.1083 ( 69)
           0.1066 ( 72)  0.1138 (113)  0.1268 (118) -0.1372 (119) -0.1012 (120)
 CRD 40=   0.1079 ( 10)  0.1616 ( 13) -0.2165 ( 14)  0.1675 ( 15) -0.2582 ( 17)
          -0.1233 ( 18)  0.3971 ( 19) -0.2798 ( 20) -0.1281 ( 38) -0.1294 ( 40)
          -0.1473 ( 50) -0.1613 ( 51) -0.2085 ( 52)  0.3096 ( 53)  0.2084 ( 55)
           0.3085 ( 56) -0.1005 ( 58)
 CRD 41=  -0.1780 (  4) -0.1307 (  8)  0.2213 (  9)  0.3065 ( 10) -0.1656 ( 12)
          -0.1897 ( 15) -0.1348 ( 17)  0.1197 ( 18) -0.1328 ( 21)  0.1723 ( 32)
          -0.1650 ( 37)  0.1625 ( 44) -0.1688 ( 46)  0.1558 ( 47)  0.1062 ( 54)
           0.1084 ( 55) -0.1198 ( 57) -0.1277 ( 58) -0.1395 ( 69) -0.1849 ( 72)
          -0.1429 ( 78)  0.2085 ( 87)  0.1585 ( 88) -0.1301 ( 93)  0.1191 ( 99)
           0.1183 (100)  0.1186 (108)  0.1055 (109) -0.1011 (111) -0.1035 (118)
           0.1044 (122)
 CRD 42=  -0.1333 (  5)  0.1146 (  6) -0.1357 (  8)  0.1244 ( 10)  0.1975 ( 15)
          -0.1019 ( 16)  0.1375 ( 19) -0.1899 ( 20)  0.1246 ( 23)  0.1311 ( 26)
          -0.1081 ( 27)  0.1174 ( 36)  0.1191 ( 38) -0.1206 ( 39) -0.1139 ( 45)
           0.1076 ( 53)  0.1183 ( 56)  0.1249 ( 60)  0.1652 ( 61) -0.1349 ( 63)
          -0.1283 ( 76)  0.1030 ( 80) -0.1619 ( 82)  0.1304 ( 86)  0.1461 ( 89)
          -0.1079 ( 91)  0.1824 ( 97)  0.2205 (102)  0.1050 (103) -0.1457 (104)
          -0.1968 (105) -0.1295 (106) -0.1400 (109) -0.1643 (110)  0.1234 (116)
           0.1207 (118) -0.1080 (119)  0.1527 (120)  0.1890 (121)
 CRD 43=   0.2873 (  3) -0.1810 (  5)  0.1264 (  7) -0.1843 (  9)  0.1600 ( 11)
          -0.1195 ( 12)  0.1274 ( 13) -0.1352 ( 15) -0.1107 ( 16)  0.1567 ( 18)
           0.1309 ( 21) -0.1410 ( 27) -0.1204 ( 32)  0.1096 ( 40) -0.1016 ( 50)
           0.1555 ( 51)  0.1688 ( 54)  0.2188 ( 59)  0.1791 ( 60)  0.1087 ( 65)
          -0.1337 ( 81) -0.1009 ( 87) -0.1386 ( 91)  0.1753 (100) -0.1335 (102)
          -0.1962 (108) -0.1405 (110)  0.1023 (111) -0.2037 (113)  0.1435 (114)
          -0.1366 (115)  0.1139 (118)
 CRD 44=  -0.1845 (  3)  0.1441 (  5)  0.2862 (  7) -0.2030 (  8)  0.1515 ( 11)
          -0.1433 ( 12)  0.1296 ( 17) -0.1422 ( 20)  0.1405 ( 22)  0.1304 ( 27)
          -0.1518 ( 29) -0.1438 ( 33) -0.1031 ( 39)  0.1001 ( 40)  0.1082 ( 57)
           0.1657 ( 60)  0.1004 ( 67) -0.1422 ( 68) -0.1048 ( 71)  0.1411 ( 74)
           0.1009 ( 85)  0.1835 ( 86) -0.1551 ( 90)  0.1085 ( 91) -0.1393 ( 92)
           0.1053 ( 98) -0.1508 ( 99) -0.1054 (104)  0.1366 (105) -0.1404 (106)
          -0.1367 (108) -0.1479 (109)  0.1236 (110) -0.1325 (115)  0.1466 (118)
           0.1145 (121) -0.1439 (122)
 CRD 45=  -0.2630 (  3)  0.1808 (  4)  0.1016 (  5)  0.1769 ( 11) -0.1365 ( 12)
          -0.1026 ( 13) -0.1257 ( 20)  0.1138 ( 21)  0.1250 ( 28)  0.1343 ( 34)
          -0.1126 ( 39) -0.1109 ( 42) -0.1350 ( 45) -0.2511 ( 59)  0.1038 ( 65)
          -0.1321 ( 67) -0.1128 ( 68)  0.1929 ( 75)  0.1197 ( 78) -0.1200 ( 83)
          -0.1844 ( 88)  0.1129 ( 92) -0.1179 ( 93) -0.1015 ( 97)  0.1059 ( 99)
          -0.1455 (100)  0.1120 (101) -0.1170 (102)  0.1653 (106) -0.1443 (107)
           0.2014 (109) -0.2487 (110)  0.1006 (111) -0.1244 (112)  0.1332 (113)
           0.1251 (116) -0.1817 (121)
 CRD 46=  -0.1337 (  6)  0.2149 (  7) -0.1902 (  9) -0.1036 ( 13) -0.1088 ( 14)
           0.1921 ( 16)  0.1124 ( 17)  0.1317 ( 22) -0.1403 ( 26) -0.1171 ( 28)
          -0.1762 ( 32)  0.1027 ( 41)  0.1815 ( 43)  0.1433 ( 47)  0.1387 ( 50)
          -0.1019 ( 51)  0.1135 ( 60) -0.1705 ( 62) -0.1158 ( 64)  0.1018 ( 66)
           0.1270 ( 68) -0.1551 ( 71) -0.1264 ( 74)  0.1391 ( 77)  0.1025 ( 78)
          -0.1307 ( 87)  0.1360 ( 88)  0.1433 ( 91)  0.1203 ( 94)  0.1041 ( 99)
           0.1506 (102) -0.1811 (105) -0.1019 (108) -0.1044 (110)  0.1080 (116)
          -0.1586 (117) -0.1032 (119)  0.1908 (120) -0.1184 (121)  0.1194 (122)
 CRD 47=   0.1518 (  3) -0.1098 (  4) -0.1204 (  8) -0.3189 ( 13)  0.2172 ( 15)
          -0.1553 ( 18) -0.1570 ( 23)  0.1570 ( 24) -0.1248 ( 31)  0.1938 ( 46)
          -0.1486 ( 51) -0.2271 ( 54)  0.1661 ( 59)  0.1400 ( 66)  0.1578 ( 69)
          -0.1465 ( 71) -0.1297 ( 91) -0.2029 (101)  0.1484 (109)  0.2928 (112)
           0.1014 (113) -0.1178 (115) -0.1042 (116) -0.1673 (121)
 CRD 48=   0.1991 (  4) -0.1494 (  5) -0.1528 (  9)  0.2706 ( 10) -0.2473 ( 11)
           0.1056 ( 14) -0.1186 ( 22) -0.1216 ( 27)  0.1332 ( 28)  0.1316 ( 35)
          -0.1575 ( 36) -0.1102 ( 40)  0.1869 ( 44) -0.1921 ( 57)  0.1293 ( 60)
           0.1328 ( 65)  0.1170 ( 69)  0.1080 ( 70) -0.1920 ( 72) -0.1388 ( 77)
          -0.1180 ( 79)  0.1255 ( 86) -0.1280 (100)  0.1196 (107)  0.1321 (111)
          -0.3214 (117) -0.1622 (118)  0.1518 (119)
 CRD 49=   0.1549 (  3) -0.2003 (  7)  0.2456 (  8)  0.1137 ( 10)  0.1313 ( 11)
          -0.2293 ( 12) -0.1603 ( 13)  0.1508 ( 29)  0.1045 ( 30)  0.1160 ( 33)
          -0.1123 ( 37) -0.1103 ( 39)  0.1045 ( 40)  0.1054 ( 44) -0.1468 ( 45)
          -0.1892 ( 60)  0.1415 ( 63) -0.1078 ( 64)  0.2188 ( 73)  0.1982 ( 74)
          -0.1604 ( 76) -0.1252 ( 81)  0.1669 ( 87) -0.1543 ( 92)  0.1062 ( 95)
          -0.2776 (107)  0.1242 (115) -0.1730 (118)
 CRD 50=  -0.1435 (  4)  0.1857 (  5)  0.1096 (  7)  0.1245 ( 10) -0.1850 ( 11)
           0.1308 ( 14)  0.1792 ( 15) -0.2213 ( 16)  0.1243 ( 22) -0.1561 ( 26)
           0.1251 ( 27) -0.1404 ( 28)  0.1994 ( 38) -0.1546 ( 43)  0.1286 ( 44)
           0.1806 ( 46) -0.1521 ( 47)  0.1103 ( 48)  0.2000 ( 61)  0.1053 ( 62)
          -0.1028 ( 66) -0.2730 ( 70)  0.1181 ( 73)  0.1273 ( 79) -0.1035 ( 80)
          -0.1133 ( 81) -0.1047 ( 88)  0.1255 ( 89)  0.1180 ( 90)  0.2156 ( 98)
           0.1343 (100)  0.1543 (101)  0.1043 (113) -0.1081 (117)  0.1094 (120)
 CRD 51=   0.1434 ( 23) -0.1779 ( 24) -0.1032 ( 27)  0.2257 ( 31)  0.1249 ( 35)
           0.1253 ( 40)  0.1174 ( 42)  0.1155 ( 50)  0.1036 ( 64) -0.2393 ( 66)
           0.1537 ( 70)  0.1083 ( 71) -0.1857 ( 74) -0.1008 ( 79) -0.1118 ( 80)
          -0.2590 ( 83) -0.1418 ( 90)  0.1723 ( 92)  0.2357 ( 96)  0.1208 (102)
           0.2369 (109) -0.1155 (110)  0.1405 (111)  0.1470 (121) -0.3231 (122)
 CRD 52=  -0.2148 ( 15) -0.1137 ( 22) -0.1352 ( 23) -0.1422 ( 31) -0.1589 ( 35)
          -0.1014 ( 36) -0.1077 ( 40)  0.1504 ( 45)  0.1066 ( 47) -0.1101 ( 50)
           0.1794 ( 61) -0.1002 ( 62)  0.1798 ( 67) -0.1369 ( 73)  0.1323 ( 75)
          -0.2255 ( 76) -0.1489 ( 83) -0.2012 ( 85)  0.1510 ( 89) -0.1320 ( 93)
           0.2193 ( 95)  0.2235 ( 96) -0.1683 (103)  0.1006 (104)  0.1532 (109)
          -0.2666 (119)  0.2278 (120) -0.2389 (122)
 CRD 53=   0.1202 ( 29)  0.1462 ( 62) -0.2421 ( 63) -0.2222 ( 64) -0.1022 ( 65)
          -0.1041 ( 66) -0.1465 ( 77)  0.2191 ( 79)  0.2845 ( 80)  0.1576 ( 81)
          -0.1550 ( 83)  0.1011 ( 85) -0.1556 ( 90)  0.1110 ( 92)  0.1783 ( 96)
          -0.1651 ( 98)  0.1114 (109) -0.3449 (111)  0.1376 (115)  0.2775 (116)
           0.1139 (119) -0.1446 (120)  0.1226 (121) -0.1687 (122)
 CRD 54=  -0.1533 ( 10) -0.3299 ( 23)  0.1286 ( 25)  0.1604 ( 31)  0.2094 ( 35)
          -0.3839 ( 36) -0.1238 ( 39)  0.1844 ( 43) -0.1368 ( 48)  0.1145 ( 57)
           0.2374 ( 61)  0.1262 ( 62) -0.1052 ( 75) -0.1954 ( 76) -0.1072 ( 77)
          -0.2030 ( 85)  0.1501 ( 90)  0.2058 ( 95) -0.1080 ( 96)  0.1175 (105)
          -0.1093 (109)  0.1276 (120) -0.1148 (121)  0.1296 (122)

 THE DETERMINANT OF THE G MATRIX IS 10**(   -20)


                     --------------------
                     INTERNAL COORDINATES
                     --------------------

                 - - ATOMS - -         COORDINATE      COORDINATE
 NO.   TYPE    I  J  K  L  M  N        (BOHR,RAD)       (ANG,DEG)
 ----------------------------------------------------------------
   1 STRETCH   1  6                     3.7843791       2.0026073
   2 STRETCH   3  4                     3.7763155       1.9983402
   3 STRETCH   1  2                     2.5653154       1.3575066
   4 STRETCH   1 12                     2.0706279       1.0957292
   5 STRETCH   1 11                     2.0649955       1.0927486
   6 STRETCH   2 13                     2.0542876       1.0870822
   7 STRETCH   2  3                     2.8451522       1.5055898
   8 STRETCH   3 14                     2.0666948       1.0936479
   9 STRETCH   3 15                     2.0640927       1.0922709
  10 STRETCH   4  9                     2.8724597       1.5200403
  11 STRETCH   4  5                     2.8417966       1.5038141
  12 STRETCH   4 16                     2.0638383       1.0921363
  13 STRETCH   5  6                     2.5722255       1.3611632
  14 STRETCH   5 17                     2.0516574       1.0856904
  15 STRETCH   6  7                     2.8005710       1.4819984
  16 STRETCH   6 18                     2.0710758       1.0959662
  17 STRETCH   7  8                     2.5339100       1.3408875
  18 STRETCH   7 19                     2.0538535       1.0868526
  19 STRETCH   8 20                     2.0434796       1.0813629
  20 STRETCH   8  9                     2.8081389       1.4860032
  21 STRETCH   9 10                     2.3234346       1.2295087
  22 BEND      1  2 13                  2.0892745     119.7066119
  23 BEND      1  6  7                  1.8454155     105.7345220
  24 BEND      1  6  5                  1.7935277     102.7615665
  25 BEND      1  6 18                  1.6778550      96.1340086
  26 BEND      1  2  3                  2.0946191     120.0128365
  27 BEND      2  1 12                  2.0187081     115.6634519
  28 BEND      2  1 11                  2.0618576     118.1357392
  29 BEND      2  3 15                  2.0134545     115.3624433
  30 BEND      2  3  4                  1.8436190     105.6315896
  31 BEND      2  1  6                  1.9105659     109.4673648
  32 BEND      2  3 14                  1.9617170     112.3981025
  33 BEND      3  2 13                  2.0497537     117.4422375
  34 BEND      3  4 16                  1.8546526     106.2637644
  35 BEND      3  4  5                  1.7971733     102.9704474
  36 BEND      3  4  9                  1.8236737     104.4888071
  37 BEND      4  5 17                  2.0674835     118.4580791
  38 BEND      4  5  6                  2.0235131     115.9387623
  39 BEND      4  9 10                  2.1395240     122.5856949
  40 BEND      4  9  8                  2.0577095     117.8980723
  41 BEND      4  3 15                  1.8569483     106.3952995
  42 BEND      4  3 14                  1.7978692     103.0103165
  43 BEND      5  6  7                  2.0029053     114.7580181
  44 BEND      5  4 16                  2.0095052     115.1361676
  45 BEND      5  4  9                  1.9880254     113.9054641
  46 BEND      5  6 18                  2.0640391     118.2607295
  47 BEND      6  5 17                  2.1019001     120.4300021
  48 BEND      6  1 12                  1.5388069      88.1671406
  49 BEND      6  1 11                  1.7903289     102.5782924
  50 BEND      6  7 19                  2.0357124     116.6377281
  51 BEND      6  7  8                  2.1436100     122.8198064
  52 BEND      7  8 20                  2.1560293     123.5313794
  53 BEND      7  8  9                  2.0729275     118.7699942
  54 BEND      7  6 18                  2.0127680     115.3231140
  55 BEND      8  9 10                  2.0854928     119.4899370
  56 BEND      8  7 19                  2.1038338     120.5407964
  57 BEND      9  4 16                  1.9658905     112.6372312
  58 BEND      9  8 20                  2.0542018     117.6970927
  59 BEND     11  1 12                  2.0393495     116.8461172
  60 BEND     14  3 15                  1.9683100     112.7758531
  61 TORSION   1  6  5 17               1.5194371      87.0573309
  62 TORSION   1  6  5  4              -1.1717471     -67.1361615
  63 TORSION   1  2  3 15               1.1564227      66.2581388
  64 TORSION   1  2  3  4              -0.8889942     -50.9356176
  65 TORSION   1  2  3 14              -2.8368221    -162.5379333
  66 TORSION   1  6  7  8               1.4752554      84.5259070
  67 TORSION   1  6  7 19              -1.6745105     -95.9423828
  68 TORSION   2  3  4  9               1.8875453     108.1483806
  69 TORSION   2  1  6 18               2.1168138     121.2844989
  70 TORSION   2  1  6  5               0.0077920       0.4464488
  71 TORSION   2  1  6  7              -2.0980969    -120.2120998
  72 TORSION   2  3  4 16              -2.3133313    -132.5441190
  73 TORSION   2  3  4  5              -0.1942124     -11.1275529
  74 TORSION   3  4  9 10               1.3668339      78.3138161
  75 TORSION   3  4  9  8              -1.7420036     -99.8094544
  76 TORSION   3  4  5 17              -1.4273209     -81.7794636
  77 TORSION   3  4  5  6               1.2731474      72.9459752
  78 TORSION   3  2  1 11               3.0533501     174.9440753
  79 TORSION   3  2  1  6               1.0147215      58.1392585
  80 TORSION   3  2  1 12              -0.6886667     -39.4576971
  81 TORSION   4  3  2 13               1.9188576     109.9424431
  82 TORSION   4  9  8 20              -3.0325141    -173.7502608
  83 TORSION   4  9  8  7               0.1166613       6.6842014
  84 TORSION   4  5  6 18              -2.9912381    -171.3853178
  85 TORSION   4  5  6  7               0.8222096      47.1091381
  86 TORSION   5  4  3 15              -2.3425573    -134.2186463
  87 TORSION   5  4  3 14               1.8667231     106.9553542
  88 TORSION   5  6  1 11              -2.1957058    -125.8046726
  89 TORSION   5  6  7 19               2.6452118     151.5594713
  90 TORSION   5  6  7  8              -0.4882077     -27.9722389
  91 TORSION   5  6  1 12               2.0434151     117.0790615
  92 TORSION   5  4  9  8               0.2057731      11.7899323
  93 TORSION   5  4  9 10              -2.9685746    -170.0867972
  94 TORSION   6  5  4 16              -2.9997003    -171.8701682
  95 TORSION   6  5  4  9              -0.6906092     -39.5689923
  96 TORSION   6  7  8  9               0.0036321       0.2081018
  97 TORSION   6  7  8 20              -3.1299063    -179.3304197
  98 TORSION   6  1  2 13              -1.7855754    -102.3059368
  99 TORSION   7  8  9 10              -2.9932248    -171.4991473
 100 TORSION   7  6  1 11               1.9815906     113.5367787
 101 TORSION   7  6  1 12              -0.0624738      -3.5794871
 102 TORSION   7  6  5 17              -2.7697916    -158.6973695
 103 TORSION   8  7  6 18              -2.9781158    -170.6334651
 104 TORSION   8  9  4 16               2.5356548     145.2823202
 105 TORSION   9  4  5 17               2.8921078     165.7055690
 106 TORSION   9  8  7 19              -3.1294781    -179.3058872
 107 TORSION   9  4  3 15              -0.2607995     -14.9427128
 108 TORSION   9  4  3 14              -2.3347045    -133.7687123
 109 TORSION  10  9  8 20               0.1407851       8.0663904
 110 TORSION  10  9  4 16              -0.6386929     -36.5944093
 111 TORSION  11  1  2 13               0.2530532      14.4988801
 112 TORSION  11  1  6 18              -0.0866839      -4.9666225
 113 TORSION  12  1  6 18              -2.1307484    -122.0828883
 114 TORSION  12  1  2 13               2.7942217     160.0971076
 115 TORSION  13  2  3 15              -2.3189108    -132.8638006
 116 TORSION  13  2  3 14              -0.0289702      -1.6598727
 117 TORSION  14  3  4 16              -0.2523958     -14.4612120
 118 TORSION  15  3  4 16               1.8215092     104.3647875
 119 TORSION  16  4  5 17               0.5830166      33.4043930
 120 TORSION  17  5  6 18              -0.3000540     -17.1918254
 121 TORSION  18  6  7 19               0.1553037       8.8982451
 122 TORSION  19  7  8 20               0.0201689       1.1555913

     ------------------------------------------
     THE POINT GROUP IS C1 , NAXIS= 0, ORDER= 1
     ------------------------------------------

     DIMENSIONS OF THE SYMMETRY SUBSPACES ARE
 A   =   60

 ..... DONE SETTING UP THE RUN .....
 STEP CPU TIME =     0.04 TOTAL CPU TIME =          0.0 (      0.0 MIN)
 TOTAL WALL CLOCK TIME=          0.1 SECONDS, CPU UTILIZATION IS    66.67%


          -----------------------------
          STATIONARY POINT LOCATION RUN
          -----------------------------


           ** GEOMETRY CONSTRAINTS ARE BEING APPLIED. **

          TRANSFORMING DISPLACEMENT FROM INTERNALS TO CARTESIANS
          THE ROOT MEAN SQUARE ERROR IN ITERATION   1 IS   0.00000135
          THE ROOT MEAN SQUARE ERROR IN ITERATION   2 IS   0.00000000
 WARNING! THE RADIUS IN CARTESIANS IS    0.00946
 OBTAINING INITIAL HESSIAN, HESS=CALC    

     ---------------------------------
     HESSIAN MATRIX CONTROL PARAMETERS
     ---------------------------------
     METHOD=ANALYTIC   NVIB  =       2   VIBSIZ= 0.01000
     RDHESS=       F   PURIFY=       F   PRTIFC=       F
     VIBANL=       F   DECOMP=       F   PROJCT=       F
     SCLFAC= 1.00000   PRTSCN=       F   NPRT  =       0
     PULCOR=       F   NPUN  =       0   REDOVB=       T
     HSSTYP=GENERAL 
 Old integral subroutine is used

     ------------------------------
     CPHF RESPONSE SOLUTION OPTIONS
     ------------------------------
     POLAR  =       F     NWORD  =       0
     CPHF   =AO      

          ********************
          1 ELECTRON INTEGRALS
          ********************
 ...... END OF ONE-ELECTRON INTEGRALS ......
 STEP CPU TIME =     0.04 TOTAL CPU TIME =          0.1 (      0.0 MIN)
 TOTAL WALL CLOCK TIME=          0.1 SECONDS, CPU UTILIZATION IS    72.73%

          -------------
          GUESS OPTIONS
          -------------
          GUESS =HUCKEL            NORB  =       0          NORDER=       0
          MIX   =       F          PRTMO =       F          PUNMO =       F
          TOLZ  = 1.0E-08          TOLE  = 1.0E-05
          SYMDEN=       F          PURIFY=       F

 INITIAL GUESS ORBITALS GENERATED BY HUCKEL   ROUTINE.
 HUCKEL GUESS REQUIRES     53820 WORDS.

 SYMMETRIES FOR INITIAL GUESS ORBITALS FOLLOW.   BOTH SET(S).
    36 ORBITALS ARE OCCUPIED (   10 CORE ORBITALS).
    11=A       12=A       13=A       14=A       15=A       16=A       17=A   
    18=A       19=A       20=A       21=A       22=A       23=A       24=A   
    25=A       26=A       27=A       28=A       29=A       30=A       31=A   
    32=A       33=A       34=A       35=A       36=A       37=A       38=A   
    39=A       40=A       41=A       42=A       43=A       44=A       45=A   
    46=A   
 ...... END OF INITIAL ORBITAL SELECTION ......
 STEP CPU TIME =     0.02 TOTAL CPU TIME =          0.1 (      0.0 MIN)
 TOTAL WALL CLOCK TIME=          0.1 SECONDS, CPU UTILIZATION IS    83.33%

                    ----------------------
                    AO INTEGRAL TECHNOLOGY
                    ----------------------
     S,P,L SHELL ROTATED AXIS INTEGRALS, REPROGRAMMED BY
        KAZUYA ISHIMURA (IMS) AND JOSE SIERRA (SYNSTAR).
     S,P,D,L SHELL ROTATED AXIS INTEGRALS PROGRAMMED BY
        KAZUYA ISHIMURA (INSTITUTE FOR MOLECULAR SCIENCE).
     S,P,D,F,G SHELL TO TOTAL QUARTET ANGULAR MOMENTUM SUM 5,
        ERIC PROGRAM BY GRAHAM FLETCHER (ELORET AND NASA ADVANCED
        SUPERCOMPUTING DIVISION, AMES RESEARCH CENTER).
     S,P,D,F,G,L SHELL GENERAL RYS QUADRATURE PROGRAMMED BY
        MICHEL DUPUIS (PACIFIC NORTHWEST NATIONAL LABORATORY).

          --------------------
          2 ELECTRON INTEGRALS
          --------------------

 THE -PK- OPTION IS OFF, THE INTEGRALS ARE NOT IN SUPERMATRIX FORM.
 STORING   15000 INTEGRALS/RECORD ON DISK, USING 12 BYTES/INTEGRAL.
 TWO ELECTRON INTEGRAL EVALUATION REQUIRES   89821 WORDS OF MEMORY.
 SCHWARZ INEQUALITY OVERHEAD:      1797 INTEGRALS, T=        0.00
 II,JST,KST,LST =  1  1  1  1 NREC =         1 INTLOC =    1
 II,JST,KST,LST =  2  1  1  1 NREC =         1 INTLOC =    2
 II,JST,KST,LST =  3  1  1  1 NREC =         1 INTLOC =   34
 II,JST,KST,LST =  4  1  1  1 NREC =         1 INTLOC =  144
 II,JST,KST,LST =  5  1  1  1 NREC =         1 INTLOC = 1366
 II,JST,KST,LST =  6  1  1  1 NREC =         1 INTLOC = 1951
 II,JST,KST,LST =  7  1  1  1 NREC =         1 INTLOC = 6853
 II,JST,KST,LST =  8  1  1  1 NREC =         1 INTLOC = 8470
 II,JST,KST,LST =  9  1  1  1 NREC =         2 INTLOC = 5866
 II,JST,KST,LST = 10  1  1  1 NREC =         2 INTLOC = 9602
 II,JST,KST,LST = 11  1  1  1 NREC =         4 INTLOC = 4941
 II,JST,KST,LST = 12  1  1  1 NREC =         4 INTLOC =12052
 II,JST,KST,LST = 13  1  1  1 NREC =         7 INTLOC =12108
 II,JST,KST,LST = 14  1  1  1 NREC =         8 INTLOC = 8221
 II,JST,KST,LST = 15  1  1  1 NREC =        13 INTLOC = 4930
 II,JST,KST,LST = 16  1  1  1 NREC =        14 INTLOC = 6936
 II,JST,KST,LST = 17  1  1  1 NREC =        21 INTLOC = 9758
 II,JST,KST,LST = 18  1  1  1 NREC =        23 INTLOC = 5822
 II,JST,KST,LST = 19  1  1  1 NREC =        33 INTLOC =13370
 II,JST,KST,LST = 20  1  1  1 NREC =        35 INTLOC = 9357
 II,JST,KST,LST = 21  1  1  1 NREC =        47 INTLOC =14385
 II,JST,KST,LST = 22  1  1  1 NREC =        51 INTLOC =10726
 II,JST,KST,LST = 23  1  1  1 NREC =        56 INTLOC = 1024
 II,JST,KST,LST = 24  1  1  1 NREC =        60 INTLOC = 4041
 II,JST,KST,LST = 25  1  1  1 NREC =        64 INTLOC =14195
 II,JST,KST,LST = 26  1  1  1 NREC =        70 INTLOC = 1654
 II,JST,KST,LST = 27  1  1  1 NREC =        75 INTLOC = 8369
 II,JST,KST,LST = 28  1  1  1 NREC =        81 INTLOC = 3328
 II,JST,KST,LST = 29  1  1  1 NREC =        87 INTLOC = 1120
 II,JST,KST,LST = 30  1  1  1 NREC =        93 INTLOC = 2462
 SCHWARZ INEQUALITY TEST SKIPPED       25186 INTEGRAL BLOCKS.
 TOTAL NUMBER OF NONZERO TWO-ELECTRON INTEGRALS =             1478941
         99 INTEGRAL RECORDS WERE STORED ON DISK FILE  8.
  ...... END OF TWO-ELECTRON INTEGRALS .....
 STEP CPU TIME =     0.28 TOTAL CPU TIME =          0.4 (      0.0 MIN)
 TOTAL WALL CLOCK TIME=          0.4 SECONDS, CPU UTILIZATION IS    92.68%

          --------------------------
                 RHF SCF CALCULATION
          --------------------------

     NUCLEAR ENERGY =       505.5680591281
     MAXIT =   30     NPUNCH=    2
     EXTRAP=T  DAMP=F  SHIFT=F  RSTRCT=F  DIIS=F  DEM=F  SOSCF=T
     DENSITY MATRIX CONV=  1.00E-05
     SOSCF WILL OPTIMIZE     864 ORBITAL ROTATIONS, SOGTOL=   0.250
     MEMORY REQUIRED FOR RHF ITERS=     59496 WORDS.

 ITER EX DEM     TOTAL ENERGY        E CHANGE  DENSITY CHANGE     ORB. GRAD
   1  0  0     -415.4845276020  -415.4845276020   0.520848181   0.000000000
          ---------------START SECOND ORDER SCF---------------
   2  1  0     -415.9988669569    -0.5143393549   0.304278857   0.061173298
   3  2  0     -416.0316243291    -0.0327573723   0.145563180   0.049545704
   4  3  0     -416.0655986615    -0.0339743324   0.018724254   0.005802384
   5  4  0     -416.0665043635    -0.0009057019   0.006417110   0.003003567
   6  5  0     -416.0666397315    -0.0001353680   0.002217629   0.000823489
   7  6  0     -416.0666591885    -0.0000194570   0.000932402   0.000227202
   8  7  0     -416.0666610727    -0.0000018842   0.000405958   0.000100669
   9  8  0     -416.0666614735    -0.0000004008   0.000103643   0.000032505
  10  9  0     -416.0666615245    -0.0000000510   0.000058583   0.000015850
  11 10  0     -416.0666615326    -0.0000000081   0.000021436   0.000003302
  12 11  0     -416.0666615336    -0.0000000010   0.000008363   0.000002072
  13 12  0     -416.0666615338    -0.0000000002   0.000005292   0.000000823

          -----------------
          DENSITY CONVERGED
          -----------------
     TIME TO FORM FOCK OPERATORS=       0.3 SECONDS (       0.0 SEC/ITER)
     TIME TO SOLVE SCF EQUATIONS=       0.0 SECONDS (       0.0 SEC/ITER)

 FINAL RHF ENERGY IS     -416.0666615338 AFTER  13 ITERATIONS

          ------------
          EIGENVECTORS
          ------------

                      1          2          3          4          5
                  -20.2543   -11.1105   -11.0514   -11.0510   -11.0501
                     A          A          A          A          A   
    1  C  1  S    0.000000   0.000040  -0.019624  -0.001800  -0.002311
    2  C  1  S   -0.000001   0.000041  -0.003432  -0.000366   0.000024
    3  C  1  X   -0.000002   0.000037  -0.001353  -0.000126   0.000025
    4  C  1  Y   -0.000003   0.000015   0.000534  -0.000003   0.000013
    5  C  1  Z    0.000002  -0.000018  -0.002087  -0.000257  -0.000083
    6  C  2  S    0.000000   0.000020  -0.000384   0.000111  -0.001406
    7  C  2  S   -0.000002   0.000017   0.000201   0.001879  -0.005504
    8  C  2  X   -0.000006   0.000043   0.000240  -0.000195   0.000769
    9  C  2  Y   -0.000005   0.000012  -0.000114   0.000962  -0.003002
   10  C  2  Z    0.000001  -0.000002  -0.000007   0.000883  -0.002551
   11  C  3  S   -0.000007  -0.000333   0.017261  -0.295271   0.947242
   12  C  3  S    0.000032   0.000112   0.000840  -0.012768   0.032350
   13  C  3  X    0.000042  -0.000214   0.000084  -0.001055  -0.001695
   14  C  3  Y    0.000031  -0.000017  -0.000017   0.000332   0.000332
   15  C  3  Z   -0.000002  -0.000051   0.000143  -0.001391  -0.001819
   16  C  4  S   -0.000022  -0.001905  -0.088666   0.942793   0.296381
   17  C  4  S    0.000256  -0.005548  -0.003108   0.033759   0.007949
   18  C  4  X   -0.000143  -0.002770  -0.000208   0.000839   0.001831
   19  C  4  Y    0.000374  -0.002978   0.000012  -0.000162  -0.000488
   20  C  4  Z    0.000193   0.000258   0.000133   0.000723   0.002180
   21  C  5  S    0.000005  -0.000287   0.009155  -0.000801  -0.001221
   22  C  5  S    0.000014   0.000098  -0.006750  -0.006313  -0.001802
   23  C  5  X   -0.000077  -0.000054  -0.003241   0.001029   0.000371
   24  C  5  Y   -0.000030  -0.000016   0.000866  -0.003706  -0.001107
   25  C  5  Z    0.000011  -0.000016   0.003516  -0.000522  -0.000192
   26  C  6  S    0.000003  -0.000353   0.987237   0.089575   0.009888
   27  C  6  S    0.000015  -0.000076   0.036861   0.003501   0.000452
   28  C  6  X    0.000016   0.000010   0.000212   0.000075   0.000014
   29  C  6  Y   -0.000036  -0.000141   0.000212  -0.000025  -0.000039
   30  C  6  Z   -0.000006  -0.000047   0.002055   0.000209   0.000048
   31  C  7  S    0.000007  -0.000417  -0.028494  -0.010246  -0.002806
   32  C  7  S    0.000016   0.000126  -0.007345  -0.001009  -0.000173
   33  C  7  X    0.000079  -0.000008   0.003263   0.000426   0.000064
   34  C  7  Y    0.000025  -0.000017   0.002981   0.000201   0.000009
   35  C  7  Z   -0.000020  -0.000002  -0.000161  -0.000072  -0.000024
   36  C  8  S   -0.000026  -0.000819  -0.001033  -0.000985  -0.000196
   37  C  8  S    0.000374  -0.006029   0.000380   0.000207   0.000077
   38  C  8  X   -0.000012   0.003643  -0.000082  -0.000011  -0.000023
   39  C  8  Y    0.000466  -0.001221  -0.000189  -0.000096  -0.000013
   40  C  8  Z    0.000131  -0.001799   0.000001  -0.000005  -0.000013
   41  C  9  S    0.000557   0.992510   0.000130   0.002669   0.001218
   42  C  9  S   -0.007138   0.033162   0.000472  -0.005582  -0.001685
   43  C  9  X    0.000935   0.000240  -0.000324   0.002838   0.000842
   44  C  9  Y   -0.005963   0.000495  -0.000137   0.002895   0.000850
   45  C  9  Z   -0.001835  -0.000137   0.000153  -0.000479  -0.000132
   46  O 10  S    0.994275   0.000183   0.000007  -0.000015  -0.000015
   47  O 10  S    0.025894  -0.005838  -0.000076   0.000210   0.000120
   48  O 10  X    0.000845  -0.000288   0.000008  -0.000110  -0.000054
   49  O 10  Y   -0.005217   0.001703   0.000052  -0.000154  -0.000076
   50  O 10  Z   -0.001621   0.000552  -0.000004   0.000038  -0.000010
   51  H 11  S   -0.000001  -0.000009   0.000327   0.000026  -0.000063
   52  H 12  S    0.000007  -0.000108   0.000123   0.000041  -0.000132
   53  H 13  S   -0.000001   0.000004   0.000001  -0.000038   0.000099
   54  H 14  S    0.000004  -0.000066  -0.000136   0.002117  -0.006504
   55  H 15  S   -0.000008  -0.000447  -0.000127   0.002112  -0.006497
   56  H 16  S   -0.000126  -0.000061   0.000489  -0.006590  -0.001959
   57  H 17  S   -0.000025  -0.000065   0.000069   0.000077   0.000020
   58  H 18  S   -0.000017  -0.000042  -0.006793  -0.000703  -0.000103
   59  H 19  S   -0.000023  -0.000063   0.000293   0.000032   0.000006
   60  H 20  S   -0.000211   0.000022  -0.000030  -0.000051  -0.000016

                      6          7          8          9         10
                  -11.0482   -11.0366   -11.0251   -11.0202   -11.0044
                     A          A          A          A          A   
    1  C  1  S   -0.000249   0.991904  -0.000743   0.002323  -0.008280
    2  C  1  S    0.000329   0.036418   0.000084   0.000192  -0.007913
    3  C  1  X   -0.000005  -0.001585   0.000066   0.000051   0.004398
    4  C  1  Y    0.000196   0.000830   0.000063   0.000006  -0.000898
    5  C  1  Z   -0.000165  -0.000472  -0.000031  -0.000184  -0.001430
    6  C  2  S    0.000019   0.008952   0.000048  -0.007088   0.992141
    7  C  2  S   -0.000027  -0.007295   0.000016  -0.000711   0.035975
    8  C  2  X   -0.000007  -0.004312   0.000007  -0.000294   0.001750
    9  C  2  Y    0.000026   0.000977  -0.000011   0.000214  -0.000997
   10  C  2  Z    0.000026   0.001427   0.000003  -0.000549   0.000767
   11  C  3  S    0.000119   0.002084  -0.000104   0.000794   0.002309
   12  C  3  S   -0.000014   0.000161   0.000010   0.000149  -0.005699
   13  C  3  X    0.000006  -0.000141   0.000015  -0.000043  -0.000780
   14  C  3  Y    0.000005  -0.000021   0.000006   0.000122   0.003219
   15  C  3  Z   -0.000022   0.000004  -0.000004  -0.000072   0.002672
   16  C  4  S    0.008077   0.000659   0.000782   0.002898   0.000308
   17  C  4  S    0.000286   0.000033   0.000235  -0.005756   0.000093
   18  C  4  X   -0.000103  -0.000009   0.000049  -0.001414  -0.000022
   19  C  4  Y    0.000003  -0.000024  -0.000012   0.003907   0.000043
   20  C  4  Z    0.000082   0.000089   0.000004   0.000897   0.000053
   21  C  5  S   -0.001489  -0.002017  -0.006517   0.992119   0.007330
   22  C  5  S   -0.000228  -0.000118  -0.000361   0.035940  -0.000226
   23  C  5  X   -0.000207   0.000058  -0.000138  -0.000155   0.000379
   24  C  5  Y   -0.000145  -0.000017  -0.000160   0.000220  -0.000104
   25  C  5  Z    0.000012   0.000043   0.000027  -0.002577   0.000509
   26  C  6  S    0.030311   0.020643   0.000696  -0.008276   0.000149
   27  C  6  S   -0.004920  -0.001933   0.000423  -0.007898   0.000160
   28  C  6  X   -0.003095   0.001525   0.000121   0.003126   0.000021
   29  C  6  Y   -0.002891  -0.000509   0.000048  -0.000297   0.000008
   30  C  6  Z   -0.000081   0.002021   0.000033  -0.003490  -0.000057
   31  C  7  S    0.991634  -0.000392  -0.015498   0.001751  -0.000018
   32  C  7  S    0.035721   0.000089  -0.008423   0.000105  -0.000018
   33  C  7  X   -0.000278  -0.000097   0.000472   0.000096  -0.000008
   34  C  7  Y    0.001123   0.000062  -0.004208  -0.000100   0.000035
   35  C  7  Z    0.000514  -0.000189  -0.001895  -0.000252  -0.000008
   36  C  8  S    0.016067   0.000683   0.992024   0.006609  -0.000009
   37  C  8  S   -0.007131   0.000075   0.036422   0.000190  -0.000011
   38  C  8  X   -0.000432  -0.000024  -0.000331   0.000114  -0.000000
   39  C  8  Y    0.004096  -0.000008  -0.001488   0.000110   0.000003
   40  C  8  Z    0.001813  -0.000038  -0.000503  -0.000095  -0.000001
   41  C  9  S    0.000537  -0.000039   0.001801   0.000361  -0.000022
   42  C  9  S    0.000058   0.000014  -0.006248   0.000078   0.000003
   43  C  9  X    0.000044  -0.000016  -0.003743  -0.000076  -0.000000
   44  C  9  Y    0.000230  -0.000003   0.001029   0.000088  -0.000002
   45  C  9  Z    0.000063  -0.000013   0.001815  -0.000022  -0.000034
   46  O 10  S    0.000014   0.000001  -0.000019   0.000009   0.000000
   47  O 10  S   -0.000128  -0.000003   0.000307  -0.000077   0.000000
   48  O 10  X   -0.000034   0.000000   0.000129   0.000022   0.000003
   49  O 10  Y    0.000059   0.000003  -0.000134   0.000039  -0.000000
   50  O 10  Z    0.000021   0.000000  -0.000078   0.000017   0.000004
   51  H 11  S   -0.000014  -0.006805  -0.000003  -0.000056   0.000153
   52  H 12  S   -0.001033  -0.006808  -0.000238  -0.000028   0.000022
   53  H 13  S    0.000007   0.000052  -0.000002   0.000080  -0.006910
   54  H 14  S    0.000003  -0.000109   0.000001  -0.000012   0.000037
   55  H 15  S    0.000008   0.000011  -0.000009  -0.000080  -0.000099
   56  H 16  S   -0.000103  -0.000033  -0.000055   0.000010  -0.000046
   57  H 17  S   -0.000086   0.000016  -0.000008  -0.006875  -0.000091
   58  H 18  S   -0.000140  -0.000020  -0.000086   0.000167  -0.000023
   59  H 19  S   -0.006823   0.000014   0.000215  -0.000114   0.000002
   60  H 20  S    0.000024  -0.000004  -0.006838  -0.000101   0.000001

                     11         12         13         14         15
                   -1.3066    -1.0876    -1.0078    -0.9578    -0.9328
                     A          A          A          A          A   
    1  C  1  S   -0.000779  -0.055244  -0.124898   0.072183  -0.055759
    2  C  1  S    0.001890   0.145248   0.334681  -0.197082   0.158327
    3  C  1  X   -0.000004  -0.010018  -0.085776   0.042857   0.023369
    4  C  1  Y    0.000326   0.007283   0.024391  -0.017636  -0.014466
    5  C  1  Z    0.000538   0.024265   0.021852   0.004503   0.006842
    6  C  2  S   -0.000867  -0.047020  -0.147772   0.069774   0.014479
    7  C  2  S    0.001926   0.117795   0.385794  -0.185809  -0.041465
    8  C  2  X    0.000422   0.029520   0.065525  -0.038399   0.045319
    9  C  2  Y    0.000413   0.001186   0.006858   0.008572  -0.045871
   10  C  2  Z    0.000595   0.007937   0.010299   0.016927  -0.041345
   11  C  3  S   -0.002680  -0.034951  -0.097019   0.013778   0.088590
   12  C  3  S    0.006829   0.096209   0.271116  -0.035922  -0.259075
   13  C  3  X    0.001871   0.012581   0.006707   0.009244  -0.002090
   14  C  3  Y    0.000488  -0.015382  -0.042475   0.015626  -0.001894
   15  C  3  Z    0.001550  -0.004061  -0.046083   0.043952  -0.009463
   16  C  4  S   -0.021786  -0.073424  -0.014024  -0.107185   0.115194
   17  C  4  S    0.055196   0.197483   0.042144   0.304684  -0.334796
   18  C  4  X    0.020039   0.034574  -0.026369   0.025545  -0.022018
   19  C  4  Y    0.020703  -0.029572  -0.005323  -0.054395  -0.046456
   20  C  4  Z   -0.001055  -0.016995  -0.014256   0.010197  -0.004568
   21  C  5  S   -0.005076  -0.108003  -0.003660  -0.129912  -0.032428
   22  C  5  S    0.011709   0.273737   0.010465   0.353177   0.084653
   23  C  5  X    0.000286   0.035952  -0.023278  -0.004345   0.073789
   24  C  5  Y    0.005033   0.030139   0.001626   0.034035  -0.081625
   25  C  5  Z   -0.000512  -0.055033  -0.003170  -0.020363  -0.081842
   26  C  6  S   -0.003627  -0.127721   0.017723  -0.046210  -0.124616
   27  C  6  S    0.008618   0.333099  -0.046651   0.123021   0.350122
   28  C  6  X   -0.000043  -0.010031  -0.049043  -0.086205  -0.000981
   29  C  6  Y    0.002756   0.045192  -0.025568  -0.029966  -0.018821
   30  C  6  Z    0.001867   0.045188  -0.021102   0.080943   0.011783
   31  C  7  S   -0.006761  -0.111197   0.086447   0.097823  -0.022994
   32  C  7  S    0.016092   0.284256  -0.229468  -0.266182   0.065994
   33  C  7  X   -0.002851  -0.053206   0.009059  -0.022008  -0.035379
   34  C  7  Y    0.006082   0.009276  -0.046167  -0.090897  -0.107706
   35  C  7  Z    0.003346   0.022240  -0.027700  -0.019991  -0.033342
   36  C  8  S   -0.024630  -0.082929   0.088440   0.115671   0.074496
   37  C  8  S    0.058694   0.210134  -0.231893  -0.310307  -0.203229
   38  C  8  X   -0.026700  -0.019515   0.006117  -0.015929   0.040950
   39  C  8  Y    0.007676  -0.060312   0.049900   0.052443  -0.010943
   40  C  8  Z    0.012343  -0.016844   0.015618   0.032642  -0.020570
   41  C  9  S   -0.128008  -0.035365   0.022330  -0.000442   0.079091
   42  C  9  S    0.297712   0.096707  -0.062842   0.000732  -0.230590
   43  C  9  X   -0.021895   0.016958  -0.052056  -0.100803   0.002772
   44  C  9  Y    0.142958  -0.083133   0.030848  -0.030586   0.133547
[...]
 19   H            X  0.02875201  0.00064967  0.00364368 -0.14589913 -0.03197737
                   Y  0.06035031  0.00258339  0.02043537 -0.10606423 -0.01923943
                   Z  0.00045448  0.00023967  0.00823467  0.03326521  0.00816859
 20   H            X -0.01055812  0.00002930 -0.01287580 -0.11930319 -0.07471620
                   Y -0.01491594  0.00011139 -0.00666700 -0.03282786  0.03597365
                   Z  0.00285014 -0.00069135  0.01436046  0.06363078  0.05566449

 TRANS. SAYVETZ    X -0.00000007 -0.00000119 -0.00000269 -0.00000104  0.00000034
                   Y  0.00000122  0.00000042 -0.00000011 -0.00000036  0.00000050
                   Z -0.00000313  0.00000170  0.00000019  0.00000160  0.00000409
               TOTAL  0.00000337  0.00000211  0.00000270  0.00000194  0.00000414

   ROT. SAYVETZ    X -0.00134891 -0.00361516 -0.00888847  0.00146240  0.00144945
                   Y -0.00552488  0.00276113 -0.01019469  0.00113149  0.00036752
                   Z -0.00029346  0.00269091  0.00340233 -0.00071231 -0.00081916
               TOTAL  0.00569474  0.00528528  0.01394678  0.00198148  0.00170499

                           51          52          53          54          55
       FREQUENCY:      3634.33     3638.71     3689.50     3697.31     3699.05  
        SYMMETRY:         A           A           A           A           A   
    REDUCED MASS:      1.06235     1.06452     1.09084     1.09393     1.09619
    IR INTENSITY:      0.02532     0.10638     0.12791     0.07684     0.09945

  1   C            X  0.03565330 -0.02387372 -0.00488370  0.00145266  0.00973831
                   Y -0.01317250  0.00835392  0.00052265  0.00080038  0.00129210
                   Z -0.04168259  0.02882040  0.00404635 -0.00140246 -0.00623140
  2   C            X  0.00528190  0.00520881  0.01145785 -0.00964205 -0.05907469
                   Y  0.00831232 -0.00341489  0.01044100 -0.00930229 -0.05441631
                   Z -0.00204446 -0.00431928 -0.00127939  0.00088444  0.00669400
  3   C            X -0.01064844 -0.01660581  0.00010247 -0.00030185  0.00196983
                   Y  0.03464696  0.05457013 -0.00627771  0.00293141  0.01117916
                   Z  0.00574078  0.00769640 -0.00068875  0.00133769  0.00140452
  4   C            X  0.00243021  0.00095381  0.04015727  0.03649096  0.00512198
                   Y -0.00013637 -0.00101140 -0.00736372 -0.00919700 -0.00155281
                   Z -0.00253326 -0.00001911 -0.04003235 -0.03676410 -0.00459369
  5   C            X -0.00207807 -0.00079450 -0.02458552  0.00152276 -0.00111623
                   Y -0.00300971 -0.00028638 -0.03308643  0.00942346 -0.00232105
                   Z  0.00110757  0.00056943  0.01425986 -0.00004013  0.00061871
  6   C            X -0.00102825 -0.00008037 -0.01085542  0.01954605 -0.00643973
                   Y  0.00314372  0.00087435  0.03409255 -0.05195244  0.01639269
                   Z  0.00072828 -0.00098949  0.00610611 -0.01109731  0.00428693
  7   C            X  0.00071658 -0.00002003  0.00715604 -0.02057424  0.00956392
                   Y -0.00030304 -0.00007725 -0.00325010  0.00793275 -0.00338688
                   Z  0.00002131 -0.00014160 -0.00528404  0.01448417 -0.00662656
  8   C            X -0.00037508 -0.00008555 -0.00346640  0.01069885 -0.00472784
                   Y -0.00043682 -0.00017959 -0.00276282  0.00910833 -0.00399605
                   Z  0.00010545 -0.00004530  0.00062569 -0.00198171  0.00091399
  9   C            X  0.00000453  0.00011933 -0.00105363 -0.00180378  0.00008230
                   Y -0.00025964 -0.00000094 -0.00075058 -0.00111372 -0.00002831
                   Z  0.00031302  0.00020827  0.00018991  0.00051059 -0.00009188
 10   O            X  0.00000624  0.00000416  0.00005918  0.00017435 -0.00000429
                   Y  0.00002497 -0.00002411  0.00004723  0.00022005  0.00000184
                   Z -0.00001217  0.00001494 -0.00002480 -0.00001887  0.00002174
 11   H            X -0.02054120  0.01360726  0.00294357 -0.00088930 -0.00310992
                   Y  0.50820294 -0.33882654 -0.04074584  0.00836250  0.03588026
                   Z  0.26907803 -0.17881555 -0.02007129  0.00423407  0.01796775
 12   H            X -0.35195630  0.23695141  0.03839541 -0.01446338 -0.05950502
                   Y -0.37431663  0.25233947  0.03948470 -0.01598181 -0.06680484
                   Z  0.19859657 -0.13532014 -0.01914960  0.00823352  0.03384789
 13   H            X -0.11381528 -0.02077952 -0.12351425  0.10792901  0.64975228
                   Y -0.10767811 -0.02292995 -0.11754005  0.10244796  0.61673589
                   Z  0.01729536  0.00194136  0.01848513 -0.01584981 -0.09541266
 14   H            X  0.32872645  0.50427497 -0.03627610  0.01437783  0.02950643
                   Y -0.08988279 -0.13733808  0.01004455 -0.00389692 -0.00892908
                   Z -0.13911430 -0.21377760  0.01723670 -0.00720430 -0.01448784
 15   H            X -0.20795454 -0.32167771  0.03634602 -0.01288885 -0.05510780
                   Y -0.29007074 -0.45199546  0.04824514 -0.01723579 -0.07440657
                   Z  0.09389843  0.14682392 -0.01405634  0.00551020  0.02646102
 16   H            X -0.02760696 -0.00376231 -0.44779591 -0.40550550 -0.05344490
                   Y  0.00526546  0.00074895  0.09168007  0.08461574  0.01126028
                   Z  0.03119239  0.00431796  0.46263198  0.41800227  0.05410971
 17   H            X  0.02513396  0.00544181  0.27655236 -0.04876921  0.01902560
                   Y  0.03522538  0.00752025  0.39407819 -0.07159553  0.02718936
                   Z -0.01431994 -0.00312440 -0.16402258  0.02840763 -0.01113328
 18   H            X  0.01410886  0.00448699  0.13866167 -0.21386890  0.06723015
                   Y -0.03689300 -0.01166554 -0.38606301  0.59223544 -0.18646838
                   Z -0.00538695 -0.00141223 -0.07247994  0.11291646 -0.03657678
 19   H            X -0.00768452 -0.00105244 -0.08742409  0.24366537 -0.11109926
                   Y  0.00182530  0.00053871  0.02522098 -0.07013737  0.03193356
                   Z  0.00526211  0.00074486  0.05904531 -0.16326680  0.07452646
 20   H            X  0.00480287  0.00130140  0.03413071 -0.11754291  0.05122447
                   Y  0.00518917  0.00153666  0.03528100 -0.11973149  0.05219755
                   Z -0.00094722 -0.00001192 -0.00460158  0.01496752 -0.00647916

 TRANS. SAYVETZ    X  0.00000134 -0.00000086 -0.00000077 -0.00000005 -0.00000028
                   Y  0.00000058  0.00000033 -0.00000068  0.00000013 -0.00000025
                   Z -0.00000211 -0.00000087 -0.00000014 -0.00000035  0.00000115
               TOTAL  0.00000257  0.00000126  0.00000103  0.00000038  0.00000121

   ROT. SAYVETZ    X  0.00019647  0.00081718 -0.00019953  0.00077331  0.00000232
                   Y -0.00041830  0.00069653  0.00068678  0.00093622 -0.00014357
                   Z -0.00018876 -0.00036529  0.00030519 -0.00027694 -0.00001625
               TOTAL  0.00049921  0.00113418  0.00077757  0.00124548  0.00014451

                           56          57          58          59          60
       FREQUENCY:      3704.98     3715.89     3736.10     3785.88     3787.67  
        SYMMETRY:         A           A           A           A           A   
    REDUCED MASS:      1.09180     1.10090     1.10598     1.11706     1.11747
    IR INTENSITY:      0.49430     0.07553     0.06450     0.00063     0.01702

  1   C            X  0.00079273  0.00052929 -0.00012723 -0.02899536 -0.01728998
                   Y -0.00068001  0.00150759 -0.00032920 -0.07499200 -0.04588182
                   Z -0.00042564 -0.00037295  0.00003624 -0.00417051 -0.00295537
  2   C            X -0.00583628 -0.00503692  0.00006747 -0.00131289 -0.00376624
                   Y -0.00507900 -0.00448188  0.00006959 -0.00005805 -0.00364070
                   Z  0.00066827  0.00035007  0.00001374  0.00055516  0.00005988
  3   C            X  0.00030575  0.00099245 -0.00014721  0.04256553 -0.07004272
                   Y  0.00066701  0.00083461 -0.00025784  0.01554422 -0.02470585
                   Z -0.00034625 -0.00077448  0.00008954 -0.01892193  0.03110619
  4   C            X -0.01079911 -0.02060607  0.00216389  0.00003005 -0.00011245
                   Y  0.00346623  0.00847797 -0.00068006 -0.00018965  0.00021919
                   Z  0.01092745  0.01993687 -0.00195346 -0.00002947  0.00054124
  5   C            X -0.00859208 -0.03677090  0.00311262 -0.00021965 -0.00035438
                   Y -0.01568326 -0.05424140  0.00454879 -0.00008637 -0.00053915
                   Z  0.00516275  0.02495637 -0.00209048  0.00015392  0.00028372
  6   C            X -0.00653533  0.01555972 -0.00086214  0.00036196  0.00048348
                   Y  0.02519782 -0.03618099  0.00664925 -0.00013832 -0.00054287
                   Z  0.00408673 -0.01091616  0.00120786 -0.00009920 -0.00002818
  7   C            X -0.05180171  0.00381429 -0.03727153  0.00023767  0.00025372
                   Y  0.01395683  0.00111529  0.01827500 -0.00009715 -0.00019811
                   Z  0.03417499 -0.00167880  0.02764303 -0.00042036 -0.00040328
  8   C            X  0.02961369 -0.00797482 -0.04727756 -0.00006239 -0.00009957
                   Y  0.02634723 -0.00867256 -0.05699836 -0.00004215  0.00013304
                   Z -0.00518515  0.00079683  0.00253986 -0.00005447 -0.00002869
  9   C            X -0.00117165  0.00092048  0.00191559 -0.00000044 -0.00005723
                   Y -0.00007903  0.00083170 -0.00060870  0.00000943  0.00006854
                   Z  0.00062602 -0.00013776 -0.00129400  0.00011367 -0.00015009
 10   O            X  0.00014346 -0.00006381 -0.00019878  0.00001354 -0.00001268
                   Y  0.00008910 -0.00016875  0.00021300 -0.00001078  0.00001480
                   Z -0.00003692 -0.00003059  0.00019602  0.00000535 -0.00002021
 11   H            X -0.00048230  0.00039854  0.00006910 -0.02147107 -0.01272823
                   Y  0.00664821 -0.00575877  0.00158679  0.49111138  0.30069931
                   Z  0.00329179 -0.00279947  0.00085982  0.26367688  0.16118344
 12   H            X -0.00218592 -0.00801365  0.00194100  0.36806877  0.22277530
                   Y -0.00288607 -0.00935208  0.00265231  0.39120321  0.23624215
                   Z  0.00184088  0.00454289 -0.00147222 -0.21356897 -0.12886147
 13   H            X  0.06281444  0.05458134 -0.00053097  0.01243092  0.04640877
                   Y  0.05960902  0.05181305 -0.00065218  0.00655483  0.04390455
                   Z -0.00907068 -0.00803825  0.00010354 -0.00335649 -0.00477728
 14   H            X  0.00042335 -0.00484048 -0.00011437 -0.31176755  0.51263608
                   Y -0.00005801  0.00139610 -0.00002904  0.08764357 -0.14341359
                   Z  0.00001565  0.00239415  0.00004299  0.13137568 -0.21573372
 15   H            X -0.00436232 -0.00732229  0.00212192 -0.19121675  0.31099988
                   Y -0.00548317 -0.00956478  0.00254152 -0.27213970  0.44226000
                   Z  0.00212223  0.00362760 -0.00068359  0.08915168 -0.14413816
 16   H            X  0.11864419  0.21650647 -0.01937062 -0.00221629  0.00612141
                   Y -0.02446925 -0.04637718  0.00418049  0.00056735 -0.00133535
                   Z -0.12205572 -0.22218882  0.02003304  0.00266092 -0.00714431
 17   H            X  0.11320146  0.41421692 -0.03255477  0.00132131  0.00410532
                   Y  0.16423191  0.59380535 -0.04735484  0.00168786  0.00585087
                   Z -0.06820395 -0.24957559  0.01994246 -0.00080161 -0.00234838
 18   H            X  0.09624568 -0.14552293  0.02150532 -0.00274624 -0.00322198
                   Y -0.27307014  0.40247253 -0.06315585  0.00660902  0.00847234
                   Z -0.05117535  0.07871360 -0.01203906  0.00081741  0.00129151
 19   H            X  0.58477666 -0.03528891  0.41250628 -0.00346979 -0.00363952
                   Y -0.16463118  0.00866420 -0.11853280  0.00124239  0.00123563
                   Z -0.38823305  0.02261360 -0.27464914  0.00220439  0.00224069
 20   H            X -0.32809796  0.09464207  0.55138757  0.00077243  0.00009131
                   Y -0.33418861  0.09683486  0.56462885  0.00069677 -0.00009424
                   Z  0.04041419 -0.01172814 -0.06711596  0.00010249  0.00015209

 TRANS. SAYVETZ    X -0.00000027  0.00000041 -0.00000047 -0.00000006 -0.00000014
                   Y -0.00000020 -0.00000035  0.00000020  0.00000001 -0.00000006
                   Z  0.00000049 -0.00000041  0.00000043 -0.00000000  0.00000017
               TOTAL  0.00000060  0.00000067  0.00000067  0.00000006  0.00000023

   ROT. SAYVETZ    X -0.00032044  0.00022452 -0.00005695 -0.00057238 -0.00060857
                   Y -0.00030842 -0.00018785  0.00002631 -0.00035652  0.00112425
                   Z  0.00013142 -0.00021723  0.00004629  0.00027534  0.00067597
               TOTAL  0.00046376  0.00036453  0.00007796  0.00072838  0.00144611

 REFERENCE ON SAYVETZ CONDITIONS - A. SAYVETZ, J.CHEM.PHYS., 7, 383-389(1939).

 NOTE - THE MODES J,K ARE ORTHONORMALIZED ACCORDING TO
 SUM ON I   M(I) * (X(I,J)*X(I,K) + Y(I,J)*Y(I,K) + Z(I,J)*Z(I,K)) = DELTA(J,K)

  MODE FREQ(CM**-1)  SYMMETRY  RED. MASS  IR INTENS.
     1    1105.036    A        9.337634    0.024498
     2       0.111    A        6.589829    0.000060
     3       0.011    A        6.703537    0.000000
     4       0.009    A        6.703843    0.000000
     5       1.733    A        4.869980    0.014668
     6      29.509    A        5.891007    0.016282
     7      35.785    A        4.148635    0.001062
     8     110.733    A        4.132984    0.028001
     9     202.457    A        3.552084    0.015161
    10     257.732    A        4.164031    0.029889
    11     373.629    A        5.303194    0.031088
    12     410.181    A        5.704599    0.169196
    13     456.157    A        1.990709    0.060345
    14     487.188    A        3.523015    0.073496
    15     497.133    A        4.519469    0.137133
    16     536.889    A        1.988629    0.234286
    17     570.918    A        2.521754    0.186651
    18     603.775    A        5.426115    0.018132
    19     674.651    A        5.938379    0.036221
    20     837.151    A        3.394277    0.044700
    21     852.860    A        4.080797    0.044641
    22     924.925    A        1.631589    1.209310
    23     935.617    A        1.774989    0.149176
    24     971.336    A        1.615369    0.876945
    25     995.144    A        1.364947    0.224663
    26    1023.981    A        1.418900    0.043208
    27    1084.996    A        1.840151    0.188558
    28    1122.433    A        2.888364    0.002585
    29    1171.608    A        1.971649    0.073756
    30    1201.749    A        1.125579    0.032745
    31    1209.691    A        1.271828    0.004303
    32    1228.751    A        1.503065    0.137541
    33    1260.347    A        1.270396    0.221369
    34    1278.537    A        1.151201    0.415528
    35    1305.199    A        1.232857    0.016323
    36    1328.616    A        1.260992    0.107561
    37    1355.717    A        1.266620    0.030160
    38    1358.662    A        1.122983    0.019474
    39    1419.226    A        1.832365    0.645122
    40    1471.297    A        1.330304    0.101013
    41    1484.849    A        1.782040    0.004816
    42    1600.510    A        1.604259    0.151289
    43    1639.630    A        1.714857    0.150569
    44    1668.154    A        1.505926    0.060483
    45    1727.109    A        2.565967    0.327343
    46    1758.642    A        1.892935    0.050088
    47    1811.293    A        1.277778    0.196568
    48    1863.183    A        2.593644    0.054733
    49    2004.893    A        7.008100    0.061535
    50    2075.456    A       10.553730    1.845786
    51    3634.335    A        1.062354    0.025323
    52    3638.711    A        1.064525    0.106377
    53    3689.503    A        1.090838    0.127914
    54    3697.308    A        1.093932    0.076843
    55    3699.054    A        1.096187    0.099449
    56    3704.979    A        1.091798    0.494301
    57    3715.887    A        1.100903    0.075530
    58    3736.101    A        1.105981    0.064503
    59    3785.879    A        1.117058    0.000626
    60    3787.669    A        1.117465    0.017022

     -------------------------------
     THERMOCHEMISTRY AT T=  298.15 K
     -------------------------------

 USING IDEAL GAS, RIGID ROTOR, HARMONIC NORMAL MODE APPROXIMATIONS.
 P=  1.01325E+05 PASCAL.
 ALL FREQUENCIES ARE SCALED BY   1.00000
 THE MOMENTS OF INERTIA ARE (IN AMU*BOHR**2)
            865.18134          1321.62479          1660.66847
 THE ROTATIONAL SYMMETRY NUMBER IS  1.0
 THE ROTATIONAL CONSTANTS ARE (IN GHZ)
      2.08406     1.36430     1.08576
   1 IMAGINARY FREQUENCY VIBRATION(S) IS(ARE) EXCLUDED
     FROM THE FOLLOWING THERMOCHEMICAL ANALYSIS.
      8 -     60 VIBRATIONAL MODES ARE USED IN THERMOCHEMISTRY.
 THE HARMONIC ZERO POINT ENERGY IS (SCALED BY   1.000)
        0.191918 HARTREE/MOLECULE    42121.213859 CM**-1/MOLECULE 
      120.430715 KCAL/MOL              503.882110 KJ/MOL

               Q               LN Q
 ELEC.     1.00000E+00       0.000000
 TRANS.    6.10192E+07      17.926699
 ROT.      4.93277E+05      13.108825
 VIB.      1.47795E+01       2.693243
 TOT.      4.44854E+14      33.728767

              E         H         G         CV        CP        S
           KJ/MOL    KJ/MOL    KJ/MOL   J/MOL-K   J/MOL-K   J/MOL-K
 ELEC.      0.000     0.000     0.000     0.000     0.000     0.000
 TRANS.     3.718     6.197   -44.439    12.472    20.786   169.836
 ROT.       3.718     3.718   -32.496    12.472    12.472   121.464
 VIB.     515.201   515.201   497.206    94.217    94.217    60.355
 TOTAL    522.637   525.116   420.270   119.161   127.475   351.655
 VIB. THERMAL CORRECTION E(T)-E(0) = H(T)-H(0) =     11318.551 J/MOL

              E         H         G         CV        CP        S
         KCAL/MOL  KCAL/MOL  KCAL/MOL CAL/MOL-K CAL/MOL-K CAL/MOL-K
 ELEC.      0.000     0.000     0.000     0.000     0.000     0.000
 TRANS.     0.889     1.481   -10.621     2.981     4.968    40.592
 ROT.       0.889     0.889    -7.767     2.981     2.981    29.031
 VIB.     123.136   123.136   118.835    22.519    22.519    14.425
 TOTAL    124.913   125.506   100.447    28.480    30.467    84.048
 VIB. THERMAL CORRECTION E(T)-E(0) = H(T)-H(0) =      2705.199 CAL/MOL

     *******************************************************
     * THIS IS NOT A STATIONARY POINT ON THE MOLECULAR PES *
     *     THE VIBRATIONAL ANALYSIS IS NOT VALID !!!       *
     *******************************************************
 ......END OF NORMAL COORDINATE ANALYSIS......
 STEP CPU TIME =     0.01 TOTAL CPU TIME =        184.2 (      3.1 MIN)
 TOTAL WALL CLOCK TIME=        185.2 SECONDS, CPU UTILIZATION IS    99.48%
               580000  WORDS OF DYNAMIC MEMORY USED
 EXECUTION OF GAMESS TERMINATED NORMALLY Tue Nov 16 04:08:45 2021
 DDI: 263640 bytes (0.3 MB / 0 MWords) used by master data server.

 ----------------------------------------
 CPU timing information for all processes
 ========================================
 0: 181.432 + 2.767 = 184.200
 ----------------------------------------
 ddikick.x: exited gracefully.
----- accounting info -----
Files used on the master node chemcompute-node-0.novalocal were:
-rw-r--r--. 1 chemcomp chemcomp     1346 Nov 16 04:05 /scratch/307373/343413.F05
-rw-rw-r--. 1 chemcomp chemcomp 18001600 Nov 16 04:08 /scratch/307373/343413.F08
-rw-rw-r--. 1 chemcomp chemcomp 85196800 Nov 16 04:08 /scratch/307373/343413.F10
-rw-rw-r--. 1 chemcomp chemcomp   878880 Nov 16 04:08 /scratch/307373/343413.F18
Tue Nov 16 04:08:49 UTC 2021
0.126u 0.075s 3:08.85 0.1%	0+0k 8+224io 0pf+0w
Finishing Up...
Looking for IR data...
Looking for Raman data...
vibramans not found
Looking for thermodynamics data...
Looking for UV-Vis data...
307373
