----- GAMESS execution script 'rungms' -----
This job is running on host chemcompute-node-0.novalocal
under operating system Linux at Tue Nov 16 06:05:57 UTC 2021
SLURM has assigned the following compute nodes to this run:
chemcompute-node-0
Available scratch disk space (Kbyte units) at beginning of the job is
Filesystem     1K-blocks     Used Available Use% Mounted on
/dev/sda1       62903276 16877176  46026100  27% /
GAMESS temporary binary files will be written to /scratch/307435
GAMESS supplementary output files will be written to /data/slurm/343476
Copying input file 343476.inp to your run's scratch directory...
The generated host list is
chemcompute-node-0.novalocal

 Distributed Data Interface kickoff program.
 Initiating 1 compute processes on 1 nodes to run the following command:
 /data/gamess-2019R1-ddi/gamess.00.x 343476 

          ******************************************************
          *         GAMESS VERSION = 30 JUN 2019 (R1)          *
          *             FROM IOWA STATE UNIVERSITY             *
          * M.W.SCHMIDT, K.K.BALDRIDGE, J.A.BOATZ, S.T.ELBERT, *
          *   M.S.GORDON, J.H.JENSEN, S.KOSEKI, N.MATSUNAGA,   *
          *          K.A.NGUYEN, S.J.SU, T.L.WINDUS,           *
          *       TOGETHER WITH M.DUPUIS, J.A.MONTGOMERY       *
          *         J.COMPUT.CHEM.  14, 1347-1363(1993)        *
          **************** 64 BIT LINUX VERSION ****************

  SINCE 1993, STUDENTS AND POSTDOCS WORKING AT IOWA STATE UNIVERSITY
  AND ALSO IN THEIR VARIOUS JOBS AFTER LEAVING ISU HAVE MADE IMPORTANT
  CONTRIBUTIONS TO THE CODE:
     IVANA ADAMOVIC, CHRISTINE AIKENS, YURI ALEXEEV, POOJA ARORA,
     ANDREY ASADCHEV, ROB BELL, PRADIPTA BANDYOPADHYAY, JONATHAN BENTZ,
     COLLEEN BERTONI, BRETT BODE, KURT BRORSEN, CALEB CARLIN, GALINA CHABAN,
     WEI CHEN, CHEOL HO CHOI, PAUL DAY, ALBERT DEFUSCO, NUWAN DESILVA,
     TIM DUDLEY, DMITRI FEDOROV, ALEX FINDLATER, GRAHAM FLETCHER, 
     MARK FREITAG, KURT GLAESEMANN, ANASTASIA GUNINA,
     DAN KEMP, GRANT MERRILL, NORIYUKI MINEZAWA, JONATHAN MULLIN,
     TAKESHI NAGATA, SEAN NEDD, HEATHER NETZLOFF, BOSILJKA NJEGIC, RYAN OLSON,
     MIKE PAK, BUU PHAM,
     SPENCER PRUITT, LUKE ROSKOP, JIM SHOEMAKER, LYUDMILA SLIPCHENKO,
     TONY SMITH, SAROM SOK LEANG, JIE SONG, TETSUYA TAKETSUGU, SIMON WEBB,
     PENG XU, SOOHAENG YOO, FEDERICO ZAHARIEV

  ADDITIONAL CODE HAS BEEN PROVIDED BY COLLABORATORS IN OTHER GROUPS:
     IOWA STATE UNIVERSITY:
          JOE IVANIC, AARON WEST, LAIMUTIS BYTAUTAS, KLAUS RUEDENBERG
     UNIVERSITY OF TOKYO: KIMIHIKO HIRAO, TAKAHITO NAKAJIMA,
          TAKAO TSUNEDA, MUNEAKI KAMIYA, SUSUMU YANAGISAWA,
          KIYOSHI YAGI, MAHITO CHIBA, SEIKEN TOKURA, NAOAKI KAWAKAMI
     UNIVERSITY OF AARHUS: FRANK JENSEN
     UNIVERSITY OF IOWA: VISVALDAS KAIRYS, HUI LI
     NATIONAL INST. OF STANDARDS AND TECHNOLOGY: WALT STEVENS, DAVID GARMER
     UNIVERSITY OF PISA: BENEDETTA MENNUCCI, JACOPO TOMASI
     UNIVERSITY OF MEMPHIS: HENRY KURTZ, PRAKASHAN KORAMBATH
     UNIVERSITY OF ALBERTA: TOBY ZENG, MARIUSZ KLOBUKOWSKI
     UNIVERSITY OF NEW ENGLAND: MARK SPACKMAN
     MIE UNIVERSITY: HIROAKI UMEDA
     NAT. INST. OF ADVANCED INDUSTRIAL SCIENCE AND TECHNOLOGY: KAZUO KITAURA
     MICHIGAN STATE UNIVERSITY:
          KAROL KOWALSKI, MARTA WLOCH, JEFFREY GOUR, JESSE LUTZ,
          WEI LI, JUN SHEN, J. EMILIANO DEUSTUA, PIOTR PIECUCH
     UNIVERSITY OF MINNESOTA:
          YINAN SHU
     UNIVERSITY OF SILESIA: MONIKA MUSIAL, STANISLAW KUCHARSKI
     FACULTES UNIVERSITAIRES NOTRE-DAME DE LA PAIX:
          OLIVIER QUINET, BENOIT CHAMPAGNE
     UNIVERSITY OF CALIFORNIA - SANTA BARBARA: BERNARD KIRTMAN
     INSTITUTE FOR MOLECULAR SCIENCE:
          KAZUYA ISHIMURA, MICHIO KATOUDA, AND SHIGERU NAGASE
     UNIVERSITY OF NOTRE DAME: ANNA POMOGAEVA, DAN CHIPMAN
     KYUSHU UNIVERSITY:
          HARUYUKI NAKANO,
          FENG LONG GU, JACEK KORCHOWIEC, MARCIN MAKOWSKI, AND YURIKO AOKI,
          HIROTOSHI MORI AND EISAKU MIYOSHI
     PENNSYLVANIA STATE UNIVERSITY:
          TZVETELIN IORDANOV, CHET SWALINA, JONATHAN SKONE,
          SHARON HAMMES-SCHIFFER
     WASEDA UNIVERSITY:
          MASATO KOBAYASHI, TOMOKO AKAMA, TSUGUKI TOUMA,
          TAKESHI YOSHIKAWA, YASUHIRO IKABATA, JUNJI SEINO,
          YUYA NAKAJIMA, HIROMI NAKAI
     NANJING UNIVERSITY: SHUHUA LI
     UNIVERSITY OF NEBRASKA:
          PEIFENG SU, DEJUN SI, NANDUN THELLAMUREGE, YALI WANG, HUI LI
     UNIVERSITY OF ZURICH: ROBERTO PEVERATI, KIM BALDRIDGE
     N. COPERNICUS UNIVERSITY AND JACKSON STATE UNIVERSITY:
          MARIA BARYSZ
     UNIVERSITY OF COPENHAGEN: Jimmy Kromann, CASPER STEINMANN
     TOKYO INSTITUTE OF TECHNOLOGY: HIROYA NAKATA
     NAGOYA UNIVERSITY: YOSHIO NISHIMOTO, STEPHAN IRLE
     MOSCOW STATE UNIVERSITY: VLADIMIR MIRONOV
     A.N.NESMEYANOV INSTITUTE OF ORGANOELEMENT COMPOUNDS OF RUSSIAN ACADEMY OF SCIENCES:
          IGOR S. GERASIMOV

 EXECUTION OF GAMESS BEGUN Tue Nov 16 06:05:57 2021

            ECHO OF THE FIRST FEW INPUT CARDS -
 INPUT CARD>!File created by the GAMESS Input Deck Generator Plugin for Avogadro            
 INPUT CARD> $BASIS GBASIS=STO NGAUSS=3 $END                                                
 INPUT CARD> $CONTRL SCFTYP=RHF RUNTYP=OPTIMIZE NZVAR=1 mult=1  ICHARG=0 $END               
 INPUT CARD> $STATPT hssend=.t. OPTTOL=0.0005 NSTEP=50 $END                                 
 INPUT CARD> $STATPT HESS=calc ihrep=5 $END                                                 
 INPUT CARD> $FORCE nvib=2 $END                                                             
 INPUT CARD> $ZMAT DLC=.t. auto=.t. nonvdw(1)=3,7,4,11 $END                                 
 INPUT CARD> $ZMAT IFZMAT(1)=1,3,7,1,4,11 fvalue(1)=2.00,2.00 $END                          
 INPUT CARD>                                                                                
 INPUT CARD> $DATA                                                                          
 INPUT CARD>Title                                                                           
 INPUT CARD>C1                                                                              
 INPUT CARD>H     1.0     4.29189    -5.16363    -1.97992                                   
 INPUT CARD>H     1.0     2.48044    -6.21128    -1.58597                                   
 INPUT CARD>B     5.0     3.11508    -5.26026    -1.89513                                   
 INPUT CARD>H     1.0     2.58920    -4.32154    -1.27440                                   
 INPUT CARD>H     1.0     4.02474    -3.70377    -2.05377                                   
 INPUT CARD>H     1.0     0.69700    -3.24539     0.06594                                   
 INPUT CARD>C     6.0     2.76032    -5.44949    -0.41718                                   
 INPUT CARD>H     1.0     3.06908    -2.22616    -0.51018                                   
 INPUT CARD>C     6.0     4.40804    -3.86563    -1.02127                                   
 INPUT CARD>H     1.0     4.58253    -5.98639    -1.57373                                   
 INPUT CARD>C     6.0     2.34850    -4.23194     0.06069                                   
 INPUT CARD>C     6.0     1.05697    -4.00061     0.79527                                   
 INPUT CARD>H     1.0     1.14120    -3.65449    -0.25687                                   
 INPUT CARD>H     1.0     2.22645    -6.38232    -0.15539                                   
 INPUT CARD>C     6.0     4.24007    -5.35222    -0.72838                                   
 INPUT CARD>C     6.0     3.41794    -3.18901    -0.07919                                   
 INPUT CARD>H     1.0     5.44608    -3.47309    -0.99221                                   
 INPUT CARD>H     1.0     0.92551    -3.60380     1.82318                                   
 INPUT CARD>H     1.0     3.85091    -3.02581     0.93106                                   
 INPUT CARD>H     1.0     4.79301    -5.62696     0.19640                                   
 INPUT CARD> $END                                                                           
    1000000 WORDS OF MEMORY AVAILABLE

     BASIS OPTIONS
     -------------
     GBASIS=STO          IGAUSS=       3      POLAR=NONE    
     NDFUNC=       0     NFFUNC=       0     DIFFSP=       F
     NPFUNC=       0      DIFFS=       F     BASNAM=        


     RUN TITLE
     ---------
 Title                                                                           

 THE POINT GROUP OF THE MOLECULE IS C1      
 THE ORDER OF THE PRINCIPAL AXIS IS     0

 ATOM      ATOMIC                      COORDINATES (BOHR)
           CHARGE         X                   Y                   Z
 H           1.0     8.1104960694       -9.7578458020       -3.7415062776
 H           1.0     4.6873519290      -11.7376172330       -2.9970487247
 B           5.0     5.8866476298       -9.9404500242       -3.5812764111
 H           1.0     4.8928785274       -8.1665264450       -2.4082667988
 H           1.0     7.6056557718       -6.9991104215       -3.8810625418
 H           1.0     1.3171390134       -6.1328978233        0.1246085316
 C           6.0     5.2162484384      -10.2980428728       -0.7883558876
 H           1.0     5.7997202344       -4.2068324048       -0.9641004044
 C           6.0     8.3299877429       -7.3049814699       -1.9299204595
 H           1.0     8.6597260305      -11.3126367556       -2.9739184787
 C           6.0     4.4380214822       -7.9972069965        0.1146874702
 C           6.0     1.9973836772       -7.5600566837        1.5028423863
 H           1.0     2.1565552972       -6.9059847249       -0.4854139145
 H           1.0     4.2073804254      -12.0608359660       -0.2936445212
 C           6.0     8.0125704688      -10.1142292260       -1.3764386149
 C           6.0     6.4589700425       -6.0263550721       -0.1496474010
 H           1.0    10.2915989072       -6.5631884307       -1.8750050223
 H           1.0     1.7489602989       -6.8101945146        3.4453106263
 H           1.0     7.2771647034       -5.7179517909        1.7594482781
 H           1.0     9.0574755564      -10.6334125439        0.3711421840

          INTERNUCLEAR DISTANCES (ANGS.)
          ------------------------------

                1 H          2 H          3 B          4 H          5 H     

   1 H       0.0000000    2.1293469 *  1.1838110 *  2.0263335 *  1.4859388 *
   2 H       2.1293469 *  0.0000000    1.1843930 *  1.9183383 *  2.9818293 *
   3 B       1.1838110 *  1.1843930 *  0.0000000    1.2421959 *  1.8097815 *
   4 H       2.0263335 *  1.9183383 *  1.2421959 *  0.0000000    1.7463770 *
   5 H       1.4859388 *  2.9818293 *  1.8097815 *  1.7463770 *  0.0000000  
   6 H       4.5594322    3.8348362    3.7084508    2.5563707 *  3.9720443  
   7 C       2.2067122 *  1.4229290 *  1.5316654 *  1.4270177 *  2.7064226 *
   8 H       3.5048723    4.1695327    3.3355607    2.2814325 *  2.3407878 *
   9 C       1.6178086 *  3.0881389    2.0929333 *  1.8921172 *  1.1131818 *
  10 H       0.9624946 *  2.1141210 *  1.6685240 *  2.6143237 *  2.3983165 *
  11 C       2.9679791 *  2.5781164 *  2.3388713 *  1.3595698 *  2.7494882 *
  12 C       4.4180315    3.5473416    3.6139711    2.5950450 *  4.1246578  
  13 H       3.8952859    3.1776164    3.0263171    1.8913030 *  3.3979525  
  14 H       3.0133300    1.4629849 *  2.2528598 *  2.3728854 *  3.7433038  
  15 C       1.2667296 *  2.1376956 *  1.6233806 *  2.0213389 *  2.1261263 *
  16 C       2.8767494 *  3.5047693    2.7711800 *  1.8433559 *  2.1288847 *
  17 H       2.2728069 *  4.0798598    3.0729143    2.9935367 *  1.7889467 *
  18 H       5.3131115    4.5649823    4.6221105    3.5885954    4.9644700  
  19 H       3.6384808    4.2849559    3.6771677    2.8521715 *  3.0657881  
  20 H       2.2808254 *  2.9776253 *  2.7063658 *  2.9536676 *  3.0581307  

                6 H          7 C          8 H          9 C         10 H     

   1 H       4.5594322    2.2067122 *  3.5048723    1.6178086 *  0.9624946 *
   2 H       3.8348362    1.4229290 *  4.1695327    3.0881389    2.1141210 *
   3 B       3.7084508    1.5316654 *  3.3355607    2.0929333 *  1.6685240 *
   4 H       2.5563707 *  1.4270177 *  2.2814325 *  1.8921172 *  2.6143237 *
   5 H       3.9720443    2.7064226 *  2.3407878 *  1.1131818 *  2.3983165 *
   6 H       0.0000000    3.0575728    2.6452802 *  3.9164450    5.0298054  
   7 C       3.0575728    0.0000000    3.2394194    2.3640047 *  2.2240321 *
   8 H       2.6452802 *  3.2394194    0.0000000    2.1775878 *  4.1905846  
   9 C       3.9164450    2.3640047 *  2.1775878 *  0.0000000    2.1984726 *
  10 H       5.0298054    2.2240321 *  4.1905846    2.1984726 *  0.0000000  
  11 C       1.9237361 *  1.3712707 *  2.2064183 *  2.3551063 *  3.2772418  
  12 C       1.1098909 *  2.5437550 *  2.9835313 *  3.8141457    4.6888225  
  13 H       0.6847501 *  2.4226584 *  2.4126777 *  3.3617155    4.3605768  
  14 H       3.4969321    1.1062201 *  4.2555337    3.4413386    2.7784100 *
  15 C       4.1979783    1.5152448 *  3.3453072    1.5244502 *  1.1108857 *
  16 C       2.7253910 *  2.3783337 *  1.1110967 *  1.5250008 *  3.3786469  
  17 H       4.8708613    3.3838031    2.7271444 *  1.1101618 *  2.7203972 *
  18 H       1.8079179 *  3.4339936    3.4550475    4.5041610    5.5307800  
  19 H       3.2777731    2.9801615 *  1.8242453 *  2.1971081 *  3.9464256  
  20 H       4.7398516    2.1306817 *  3.8777095    2.1755931 *  1.8184752 *

               11 C         12 C         13 H         14 H         15 C     

   1 H       2.9679791 *  4.4180315    3.8952859    3.0133300    1.2667296 *
   2 H       2.5781164 *  3.5473416    3.1776164    1.4629849 *  2.1376956 *
   3 B       2.3388713 *  3.6139711    3.0263171    2.2528598 *  1.6233806 *
   4 H       1.3595698 *  2.5950450 *  1.8913030 *  2.3728854 *  2.0213389 *
   5 H       2.7494882 *  4.1246578    3.3979525    3.7433038    2.1261263 *
   6 H       1.9237361 *  1.1098909 *  0.6847501 *  3.4969321    4.1979783  
   7 C       1.3712707 *  2.5437550 *  2.4226584 *  1.1062201 *  1.5152448 *
   8 H       2.2064183 *  2.9835313 *  2.4126777 *  4.2555337    3.3453072  
   9 C       2.3551063 *  3.8141457    3.3617155    3.4413386    1.5244502 *
  10 H       3.2772418    4.6888225    4.3605768    2.7784100 *  1.1108857 *
  11 C       0.0000000    1.5037191 *  1.3754513 *  2.1646526 *  2.3357431 *
  12 C       1.5037191 *  0.0000000    1.1108071 *  2.8185068 *  3.7789528  
  13 H       1.3754513 *  1.1108071 *  0.0000000    2.9375368 *  3.5647727  
  14 H       2.1646526 *  2.8185068 *  2.9375368 *  0.0000000    2.3332572 *
  15 C       2.3357431 *  3.7789528    3.5647727    2.3332572 *  0.0000000  
  16 C       1.5003237 *  2.6452891 *  2.3306194 *  3.4092057    2.4035022 *
  17 H       3.3584898    4.7684011    4.3709979    4.4192651    2.2483763 *
  18 H       2.3507087 *  1.1096571 *  2.0918173 *  3.6506654    4.5336232  
  19 H       2.1141261 *  2.9622246 *  3.0247222    3.8839932    2.8839851 *
  20 H       2.8178231 *  4.1184529    4.1751417    2.6984357 *  1.1119545 *

               16 C         17 H         18 H         19 H         20 H     

   1 H       2.8767494 *  2.2728069 *  5.3131115    3.6384808    2.2808254 *
   2 H       3.5047693    4.0798598    4.5649823    4.2849559    2.9776253 *
   3 B       2.7711800 *  3.0729143    4.6221105    3.6771677    2.7063658 *
   4 H       1.8433559 *  2.9935367 *  3.5885954    2.8521715 *  2.9536676 *
   5 H       2.1288847 *  1.7889467 *  4.9644700    3.0657881    3.0581307  
   6 H       2.7253910 *  4.8708613    1.8079179 *  3.2777731    4.7398516  
   7 C       2.3783337 *  3.3838031    3.4339936    2.9801615 *  2.1306817 *
   8 H       1.1110967 *  2.7271444 *  3.4550475    1.8242453 *  3.8777095  
   9 C       1.5250008 *  1.1101618 *  4.5041610    2.1971081 *  2.1755931 *
  10 H       3.3786469    2.7203972 *  5.5307800    3.9464256    1.8184752 *
  11 C       1.5003237 *  3.3584898    2.3507087 *  2.1141261 *  2.8178231 *
  12 C       2.6452891 *  4.7684011    1.1096571 *  2.9622246 *  4.1184529  
  13 H       2.3306194 *  4.3709979    2.0918173 *  3.0247222    4.1751417  
  14 H       3.4092057    4.4192651    3.6506654    3.8839932    2.6984357 *
  15 C       2.4035022 *  2.2483763 *  4.5336232    2.8839851 *  1.1119545 *
  16 C       0.0000000    2.2422441 *  3.1627946    1.1111716 *  2.8125376 *
  17 H       2.2422441 *  0.0000000    5.3271999    2.5384236 *  2.5452800 *
  18 H       3.1627946    5.3271999    0.0000000    3.1125417    4.6580195  
  19 H       1.1111716 *  2.5384236 *  3.1125417    0.0000000    2.8623869 *
  20 H       2.8125376 *  2.5452800 *  4.6580195    2.8623869 *  0.0000000  

  * ... LESS THAN  3.000


     ATOMIC BASIS SET
     ----------------
 THE CONTRACTED PRIMITIVE FUNCTIONS HAVE BEEN UNNORMALIZED
 THE CONTRACTED BASIS FUNCTIONS ARE NOW NORMALIZED TO UNITY

  SHELL TYPE  PRIMITIVE        EXPONENT          CONTRACTION COEFFICIENT(S)

 H         

      1   S       1             3.4252509    0.154328967295
      1   S       2             0.6239137    0.535328142282
      1   S       3             0.1688554    0.444634542185

 H         

      2   S       4             3.4252509    0.154328967295
      2   S       5             0.6239137    0.535328142282
      2   S       6             0.1688554    0.444634542185

 B         

      3   S       7            48.7911132    0.154328967295
      3   S       8             8.8873622    0.535328142282
      3   S       9             2.4052670    0.444634542185

      4   L      10             2.2369561   -0.099967229187    0.155916274999
      4   L      11             0.5198205    0.399512826089    0.607683718598
      4   L      12             0.1690618    0.700115468880    0.391957393099

 H         

      5   S      13             3.4252509    0.154328967295
      5   S      14             0.6239137    0.535328142282
      5   S      15             0.1688554    0.444634542185

 H         

      6   S      16             3.4252509    0.154328967295
      6   S      17             0.6239137    0.535328142282
      6   S      18             0.1688554    0.444634542185

 H         

      7   S      19             3.4252509    0.154328967295
      7   S      20             0.6239137    0.535328142282
      7   S      21             0.1688554    0.444634542185

 C         

      8   S      22            71.6168373    0.154328967295
      8   S      23            13.0450963    0.535328142282
      8   S      24             3.5305122    0.444634542185

      9   L      25             2.9412494   -0.099967229187    0.155916274999
      9   L      26             0.6834831    0.399512826089    0.607683718598
      9   L      27             0.2222899    0.700115468880    0.391957393099

 H         

     10   S      28             3.4252509    0.154328967295
     10   S      29             0.6239137    0.535328142282
     10   S      30             0.1688554    0.444634542185

 C         

     11   S      31            71.6168373    0.154328967295
     11   S      32            13.0450963    0.535328142282
     11   S      33             3.5305122    0.444634542185

     12   L      34             2.9412494   -0.099967229187    0.155916274999
     12   L      35             0.6834831    0.399512826089    0.607683718598
     12   L      36             0.2222899    0.700115468880    0.391957393099

 H         

     13   S      37             3.4252509    0.154328967295
     13   S      38             0.6239137    0.535328142282
     13   S      39             0.1688554    0.444634542185

 C         

     14   S      40            71.6168373    0.154328967295
     14   S      41            13.0450963    0.535328142282
     14   S      42             3.5305122    0.444634542185

     15   L      43             2.9412494   -0.099967229187    0.155916274999
     15   L      44             0.6834831    0.399512826089    0.607683718598
     15   L      45             0.2222899    0.700115468880    0.391957393099

 C         

     16   S      46            71.6168373    0.154328967295
     16   S      47            13.0450963    0.535328142282
     16   S      48             3.5305122    0.444634542185

     17   L      49             2.9412494   -0.099967229187    0.155916274999
     17   L      50             0.6834831    0.399512826089    0.607683718598
     17   L      51             0.2222899    0.700115468880    0.391957393099

 H         

     18   S      52             3.4252509    0.154328967295
     18   S      53             0.6239137    0.535328142282
     18   S      54             0.1688554    0.444634542185

 H         

     19   S      55             3.4252509    0.154328967295
     19   S      56             0.6239137    0.535328142282
     19   S      57             0.1688554    0.444634542185

 C         

     20   S      58            71.6168373    0.154328967295
     20   S      59            13.0450963    0.535328142282
     20   S      60             3.5305122    0.444634542185

     21   L      61             2.9412494   -0.099967229187    0.155916274999
     21   L      62             0.6834831    0.399512826089    0.607683718598
     21   L      63             0.2222899    0.700115468880    0.391957393099

 C         

     22   S      64            71.6168373    0.154328967295
     22   S      65            13.0450963    0.535328142282
     22   S      66             3.5305122    0.444634542185

     23   L      67             2.9412494   -0.099967229187    0.155916274999
     23   L      68             0.6834831    0.399512826089    0.607683718598
     23   L      69             0.2222899    0.700115468880    0.391957393099

 H         

     24   S      70             3.4252509    0.154328967295
     24   S      71             0.6239137    0.535328142282
     24   S      72             0.1688554    0.444634542185

 H         

     25   S      73             3.4252509    0.154328967295
     25   S      74             0.6239137    0.535328142282
     25   S      75             0.1688554    0.444634542185

 H         

     26   S      76             3.4252509    0.154328967295
     26   S      77             0.6239137    0.535328142282
     26   S      78             0.1688554    0.444634542185

 H         

     27   S      79             3.4252509    0.154328967295
     27   S      80             0.6239137    0.535328142282
     27   S      81             0.1688554    0.444634542185

 TOTAL NUMBER OF BASIS SET SHELLS             =   27
 NUMBER OF CARTESIAN GAUSSIAN BASIS FUNCTIONS =   48
 NUMBER OF ELECTRONS                          =   54
 CHARGE OF MOLECULE                           =    0
 SPIN MULTIPLICITY                            =    1
 NUMBER OF OCCUPIED ORBITALS (ALPHA)          =   27
 NUMBER OF OCCUPIED ORBITALS (BETA )          =   27
 TOTAL NUMBER OF ATOMS                        =   20
 THE NUCLEAR REPULSION ENERGY IS      331.5007943514

     $CONTRL OPTIONS
     ---------------
 SCFTYP=RHF          RUNTYP=OPTIMIZE     EXETYP=RUN     
 MPLEVL=       0     CITYP =NONE         CCTYP =NONE         VBTYP =NONE    
 DFTTYP=NONE         TDDFT =NONE    
 MULT  =       1     ICHARG=       0     NZVAR =       1     COORD =UNIQUE  
 PP    =NONE         RELWFN=NONE         LOCAL =NONE         NUMGRD=       F
 ISPHER=      -1     NOSYM =       0     MAXIT =      30     UNITS =ANGS    
 PLTORB=       F     MOLPLT=       F     AIMPAC=       F     FRIEND=        
 NPRINT=       7     IREST =       0     GEOM  =INPUT   
 NORMF =       0     NORMP =       0     ITOL  =      20     ICUT  =       9
 INTTYP=BEST         GRDTYP=BEST         QMTTOL= 1.0E-06

     $SYSTEM OPTIONS
     ---------------
  REPLICATED MEMORY=     1000000 WORDS (ON EVERY NODE).
 DISTRIBUTED MEMDDI=           0 MILLION WORDS IN AGGREGATE,
 MEMDDI DISTRIBUTED OVER   1 PROCESSORS IS           0 WORDS/PROCESSOR.
 TOTAL MEMORY REQUESTED ON EACH PROCESSOR=     1000000 WORDS.
 TIMLIM=      525600.00 MINUTES, OR     365.0 DAYS.
 PARALL= F  BALTYP=  DLB     KDIAG=    0  COREFL= F
 MXSEQ2=     300 MXSEQ3=     150  mem10=         0

          ----------------
          PROPERTIES INPUT
          ----------------

     MOMENTS            FIELD           POTENTIAL          DENSITY
 IEMOM =       1   IEFLD =       0   IEPOT =       0   IEDEN =       0
 WHERE =COMASS     WHERE =NUCLEI     WHERE =NUCLEI     WHERE =NUCLEI  
 OUTPUT=BOTH       OUTPUT=BOTH       OUTPUT=BOTH       OUTPUT=BOTH    
 IEMINT=       0   IEFINT=       0                     IEDINT=       0
                                                       MORB  =       0
          EXTRAPOLATION IN EFFECT
          SOSCF IN EFFECT
 ORBITAL PRINTING OPTION: NPREO=     1    48     2     1

     -------------------------------
     INTEGRAL TRANSFORMATION OPTIONS
     -------------------------------
     NWORD  =            0
     CUTOFF = 1.0E-09     MPTRAN =       0
     DIRTRF =       F     AOINTS =DUP     

          ----------------------
          INTEGRAL INPUT OPTIONS
          ----------------------
 NOPK  =       1 NORDER=       0 SCHWRZ=       T


 -----------------------------------------------
  STATISTICS ON AUTOMATIC COORDINATE GENERATION 
 -----------------------------------------------
  NUMBER OF USER SPECIFIED BONDS                             2
  NUMBER OF BONDS                                           23
  NUMBER OF ANGLES                                          58
  NUMBER OF TORSIONS                                        92
  NUMBER OF EXTRA COORD.                                     0
  NUMBER OF EXTRA COORD. FOR CONSTRAINTS                     0
  NUMBER OF CONSTRAINED COORD.                               2

  TOTAL NUMBER OF PRIMITIVES                               173
 -----------------------------------------------

   --- ENCODED Z MATRIX ---
 COORD  TYPE   I   J   K   L   M   N
    1      1    3   7
    2      1    4  11
    3      1    1   3
    4      1    2   3
    5      1    3  15
    6      1    3   7
    7      1    3   4
    8      1    5   9
    9      1    6  12
   10      1    7  11
   11      1    7  15
   12      1    7  14
   13      1    8  16
   14      1    9  15
   15      1    9  17
   16      1    9  16
   17      1   10  15
   18      1   11  16
   19      1   11  12
   20      1   12  18
   21      1   12  13
   22      1   15  20
   23      1   16  19
   24      2    1   3   4
   25      2    1   3  15
   26      2    1   3   2
   27      2    1   3   7
   28      2    1   3   7
   29      2    2   3  15
   30      2    2   3   4
   31      2    2   3   7
   32      2    2   3   7
   33      2    3  15  10
   34      2    3   4  11
   35      2    3   7  14
   36      2    3  15   7
   37      2    3   7  11
   38      2    3   7  11
   39      2    3  15   9
   40      2    3  15  20
   41      2    3   7  15
   42      2    3   7  14
   43      2    3   7  15
   44      2    4  11  12
   45      2    4   3  15
   46      2    4  11  16
   47      2    4  11   7
   48      2    4   3   7
   49      2    4   3   7
   50      2    5   9  16
   51      2    5   9  17
   52      2    5   9  15
   53      2    6  12  13
   54      2    6  12  18
   55      2    6  12  11
   56      2    7   3  15
   57      2    7   3  15
   58      2    7  15  10
   59      2    7  15   9
   60      2    7  15  20
   61      2    7  11  12
   62      2    7  11  16
   63      2    8  16  19
   64      2    8  16  11
   65      2    8  16   9
   66      2    9  16  19
   67      2    9  16  11
   68      2    9  15  20
   69      2    9  15  10
   70      2   10  15  20
   71      2   11  12  13
   72      2   11  12  18
   73      2   11  16  19
   74      2   11   7  14
   75      2   11   7  15
   76      2   12  11  16
   77      2   13  12  18
   78      2   14   7  15
   79      2   15   9  16
   80      2   15   9  17
   81      2   16   9  17
   82      3    1   3   7  15
   83      3    1   3   7  11
   84      3    1   3  15   9
   85      3    1   3   4  11
   86      3    1   3  15   7
   87      3    1   3  15  20
   88      3    1   3  15  10
   89      3    1   3   7  14
   90      3    2   3  15  20
   91      3    2   3  15  10
   92      3    2   3  15   9
   93      3    2   3  15   7
   94      3    2   3   7  14
   95      3    2   3   7  15
   96      3    2   3   7  11
   97      3    2   3   4  11
   98      3    3   7  11  12
   99      3    3   7  11  16
  100      3    3   7  11   4
  101      3    3  15   7  14
  102      3    3  15   7  11
  103      3    3   7  15  20
  104      3    3   7  15  10
  105      3    3   7  15   9
  106      3    3   4  11  12
  107      3    3   4  11  16
  108      3    3  15   9  16
  109      3    3   4  11   7
  110      3    3  15   9  17
  111      3    3  15   9   5
  112      3    4   3  15   9
  113      3    4   3  15  10
  114      3    4  11   7  14
  115      3    4  11   7  15
  116      3    4  11  16  19
  117      3    4  11  16   9
  118      3    4  11  16   8
  119      3    4   3   7  11
  120      3    4  11  12  13
  121      3    4  11  12  18
  122      3    4  11  12   6
  123      3    4   3  15   7
  124      3    4   3   7  14
  125      3    4   3   7  15
  126      3    4   3  15  20
  127      3    5   9  15  20
  128      3    5   9  15  10
  129      3    5   9  15   7
  130      3    5   9  16  19
  131      3    5   9  16  11
  132      3    5   9  16   8
  133      3    6  12  11  16
  134      3    6  12  11   7
  135      3    7   3   4  11
  136      3    7   3  15   9
  137      3    7   3  15  10
  138      3    7  11  16  19
  139      3    7  11  16   9
  140      3    7  11  16   8
  141      3    7  11  12  13
  142      3    7  11  12  18
  143      3    7  15   9  16
  144      3    7  15   9  17
  145      3    7   3  15  20
  146      3    8  16   9  17
  147      3    8  16   9  15
  148      3    8  16  11  12
  149      3    9  16  11  12
  150      3    9  15   7  14
  151      3    9  15   7  11
  152      3   10  15   9  16
  153      3   10  15   9  17
  154      3   10  15   7  14
  155      3   10  15   7  11
  156      3   11   4   3  15
  157      3   11   7   3  15
  158      3   11  16   9  17
  159      3   11  16   9  15
  160      3   11   7  15  20
  161      3   12  11  16  19
  162      3   12  11   7  14
  163      3   12  11   7  15
  164      3   13  12  11  16
  165      3   14   7  11  16
  166      3   14   7   3  15
  167      3   14   7  15  20
  168      3   15   9  16  19
  169      3   15   7  11  16
  170      3   16  11  12  18
  171      3   16   9  15  20
  172      3   17   9  15  20
  173      3   17   9  16  19

          INDEP./SYM. INTERNAL COORDINATES
          --------------------------------
 CRD  1=   1.0000 (  1)
 CRD  2=   1.0000 (  2)
 CRD  3=  -0.2288 ( 10) -0.1073 ( 11) -0.1651 ( 19)  0.2576 ( 55) -0.1338 ( 61)
           0.2009 ( 71) -0.6276 ( 72)  0.1723 ( 98)  0.1392 (106) -0.1021 (148)
          -0.1889 (149)  0.1348 (162)  0.1935 (163)
 CRD  4=  -0.1229 (  3)  0.1696 (  4)  0.1527 (  5)  0.3475 ( 14)  0.1625 ( 15)
           0.1989 ( 18)  0.2355 ( 39)  0.1384 ( 46) -0.1085 ( 51)  0.2238 ( 52)
           0.1556 ( 59) -0.1317 ( 65)  0.1378 ( 67) -0.1665 ( 68) -0.1646 ( 73)
          -0.2015 ( 79) -0.1639 ( 99)  0.1647 (105)  0.1813 (131)  0.1146 (139)
           0.1177 (150)  0.1008 (164) -0.1415 (165) -0.1220 (169)
 CRD  5=  -0.2967 ( 10) -0.2043 ( 13) -0.1289 ( 14) -0.1168 ( 16) -0.4093 ( 18)
          -0.1286 ( 23) -0.1230 ( 46) -0.1045 ( 51)  0.1014 ( 52) -0.1297 ( 62)
           0.1809 ( 63) -0.1971 ( 64)  0.3145 ( 67)  0.1298 ( 72) -0.1320 ( 73)
           0.1004 ( 76) -0.3040 ( 79)  0.1357 ( 81) -0.1062 (151)
 CRD  6=  -0.1402 (  7) -0.1109 ( 13) -0.5513 ( 14) -0.1413 ( 15) -0.3122 ( 16)
          -0.1076 ( 17) -0.1050 ( 19) -0.1556 ( 62) -0.1126 ( 65) -0.1052 ( 68)
          -0.2186 ( 72)  0.1091 ( 79) -0.1913 ( 80) -0.1052 ( 98) -0.1041 ( 99)
          -0.1755 (107) -0.1210 (147)
 CRD  7=   0.1163 ( 11) -0.1264 ( 14)  0.5160 ( 16)  0.1012 ( 17) -0.1840 ( 18)
           0.1096 ( 23)  0.1330 ( 55)  0.1005 ( 65)  0.1989 ( 66)  0.1374 ( 71)
          -0.1571 ( 72) -0.1072 ( 73) -0.1969 ( 80)  0.2246 ( 81) -0.1006 (116)
          -0.1181 (130)  0.1270 (140)  0.1209 (146)  0.1126 (148) -0.1069 (163)
          -0.1443 (168) -0.1223 (169)
 CRD  8=  -0.1725 (  5)  0.1204 ( 11) -0.1245 ( 13)  0.2608 ( 14) -0.2673 ( 16)
           0.1223 ( 17) -0.1166 ( 20)  0.1173 ( 21) -0.1938 ( 25) -0.1136 ( 27)
          -0.1136 ( 28) -0.1025 ( 39) -0.1294 ( 50)  0.1149 ( 52)  0.1329 ( 55)
          -0.1455 ( 59) -0.1262 ( 65)  0.2290 ( 71) -0.1409 ( 72) -0.1148 ( 81)
           0.1148 ( 85)  0.1096 ( 92)  0.1497 (111)  0.1093 (112) -0.1004 (115)
           0.1285 (117)  0.1161 (127)  0.1255 (129)  0.1091 (130)  0.1122 (136)
           0.1253 (139) -0.1153 (146)  0.1627 (149) -0.1881 (158) -0.1182 (159)
           0.1143 (161) -0.1015 (163)
 CRD  9=   0.5031 ( 53)  0.3121 ( 55) -0.4693 ( 71) -0.2007 (120)  0.2501 (122)
           0.2582 (133)  0.2732 (134) -0.1775 (141) -0.1926 (164)
 CRD 10=  -0.1991 (  3)  0.3488 (  5) -0.1516 (  8)  0.1675 ( 11) -0.1217 ( 13)
           0.1021 ( 15) -0.1080 ( 18)  0.1094 ( 21)  0.2064 ( 22)  0.1445 ( 25)
           0.1385 ( 27)  0.1385 ( 28)  0.1217 ( 33) -0.1010 ( 36)  0.1071 ( 41)
           0.1071 ( 43) -0.1539 ( 52)  0.1602 ( 55) -0.2298 ( 64)  0.1096 ( 65)
          -0.1133 ( 66) -0.1042 ( 70)  0.1652 ( 73)  0.1574 ( 80) -0.1599 ( 85)
          -0.1214 ( 98) -0.1797 (131)  0.1011 (134)  0.1625 (147) -0.1805 (158)
           0.1351 (168)
 CRD 11=   0.1366 (  3)  0.1270 (  4)  0.1702 (  7) -0.2329 ( 11) -0.2076 ( 12)
          -0.2421 ( 15) -0.1009 ( 17) -0.1097 ( 18)  0.1704 ( 23)  0.1675 ( 25)
           0.1097 ( 46) -0.1048 ( 54)  0.1671 ( 55) -0.1238 ( 67)  0.1517 ( 72)
          -0.1226 ( 81)  0.1283 ( 84) -0.1097 (102)  0.1767 (108) -0.1287 (120)
          -0.1052 (121)  0.1194 (138)  0.1235 (140) -0.1288 (141) -0.1053 (142)
           0.1020 (143) -0.1024 (155) -0.1346 (160) -0.1178 (165)  0.1661 (171)
 CRD 12=   0.1289 (  8)  0.1232 (  9)  0.2579 ( 12)  0.1300 ( 15)  0.1569 ( 16)
          -0.1579 ( 17)  0.2408 ( 18)  0.2228 ( 23) -0.1537 ( 25) -0.1165 ( 27)
          -0.1165 ( 28)  0.1962 ( 50) -0.1271 ( 52)  0.1457 ( 59) -0.1367 ( 64)
          -0.1292 ( 69) -0.1049 ( 72)  0.1912 ( 73) -0.1270 ( 84)  0.1219 ( 85)
          -0.1260 ( 92) -0.1748 (131) -0.1473 (136)  0.1009 (143)  0.1036 (148)
          -0.1063 (150) -0.1016 (157) -0.1130 (158)  0.1015 (161)  0.1122 (168)
 CRD 13=  -0.1325 (  5) -0.2911 ( 11) -0.1829 ( 12)  0.1154 ( 15) -0.1745 ( 22)
           0.1025 ( 25) -0.2362 ( 29) -0.1587 ( 31) -0.1587 ( 32) -0.1915 ( 40)
          -0.2374 ( 60)  0.1664 ( 68)  0.1013 ( 71)  0.1158 ( 74) -0.1420 ( 78)
           0.1406 ( 80) -0.1093 ( 84) -0.1106 ( 95) -0.1485 ( 97)  0.1025 (103)
           0.1194 (147)  0.1827 (160)  0.1441 (166)  0.1048 (172)
 CRD 14=   0.1431 (  3) -0.2474 (  4)  0.2756 (  8) -0.1580 ( 13) -0.1858 ( 17)
           0.1144 ( 19)  0.1911 ( 20) -0.1527 ( 21)  0.1933 ( 22)  0.2394 ( 23)
           0.1780 ( 25)  0.1431 ( 27)  0.1431 ( 28)  0.1134 ( 31)  0.1134 ( 32)
           0.1141 ( 54) -0.1278 ( 55) -0.1377 ( 72) -0.1283 ( 85)  0.1098 ( 97)
           0.1253 (120)  0.1235 (121)  0.1264 (133)  0.1462 (134)  0.1739 (141)
           0.1721 (142)  0.1540 (164)  0.1523 (170)
 CRD 15=   0.1341 (  3) -0.1087 (  5) -0.3106 (  8) -0.1212 ( 10) -0.1789 ( 12)
          -0.1011 ( 14)  0.1679 ( 17)  0.1343 ( 19)  0.2128 ( 20) -0.2007 ( 21)
          -0.4005 ( 22)  0.1007 ( 23) -0.1367 ( 52)  0.1152 ( 54) -0.1513 ( 55)
          -0.1303 ( 68) -0.1088 ( 72) -0.1119 ( 74)  0.1010 ( 80)  0.1202 (105)
           0.1060 (133)  0.1254 (141)  0.1223 (142)  0.1107 (147)  0.1021 (150)
           0.1410 (164)  0.1173 (168)  0.1379 (170)
 CRD 16=  -0.1953 (  3)  0.1579 (  4)  0.1100 (  5)  0.1576 (  8)  0.2200 (  9)
          -0.4305 ( 12)  0.1439 ( 13) -0.1638 ( 15)  0.1126 ( 17)  0.1373 ( 20)
          -0.1881 ( 21)  0.2826 ( 22) -0.1094 ( 25) -0.1107 ( 27) -0.1107 ( 28)
           0.1106 ( 54) -0.1361 ( 55)  0.1184 ( 65) -0.1541 ( 66) -0.1129 ( 71)
          -0.1221 ( 72)  0.1055 ( 85)  0.1274 (116)  0.1015 (118)  0.1617 (138)
           0.1358 (140)  0.1069 (148)  0.1328 (161)
 CRD 17=   0.2300 (  3) -0.1044 (  4) -0.2671 (  8)  0.2092 ( 12)  0.1676 ( 13)
           0.1324 ( 15) -0.1618 ( 17) -0.2650 ( 23) -0.1772 ( 50)  0.1069 ( 52)
          -0.1085 ( 58) -0.1530 ( 64)  0.2124 ( 65) -0.2018 ( 66)  0.1008 ( 73)
          -0.1171 ( 80)  0.1657 ( 81)  0.1266 (110)  0.1504 (111)  0.1505 (116)
           0.1484 (118)  0.1062 (127)  0.1389 (129)  0.1129 (130)  0.1526 (132)
           0.1690 (138)  0.1669 (140)  0.1151 (144)  0.1438 (146)  0.1042 (147)
           0.1562 (148) -0.1215 (152)  0.1583 (161)  0.1041 (173)
 CRD 18=  -0.2028 (  3)  0.1793 (  4) -0.1152 (  7) -0.2784 (  9) -0.1070 ( 11)
          -0.3703 ( 12)  0.1314 ( 15) -0.2410 ( 17)  0.1198 ( 20)  0.2300 ( 21)
          -0.1395 ( 25) -0.1841 ( 27) -0.1841 ( 28)  0.1831 ( 29)  0.2071 ( 31)
           0.2071 ( 32)  0.1039 ( 72)  0.1479 ( 85)  0.1298 ( 94)  0.1086 ( 95)
           0.1058 ( 96)  0.1685 ( 97)
 CRD 19=   0.1206 (  4) -0.1331 (  8)  0.4031 (  9) -0.1902 ( 12) -0.1208 ( 13)
           0.2176 ( 15) -0.1800 ( 17) -0.3481 ( 20) -0.4664 ( 21)  0.1216 ( 22)
           0.1074 (111) -0.1068 (116) -0.1044 (118) -0.1147 (122)  0.1008 (129)
          -0.1421 (133) -0.1240 (134) -0.1085 (138) -0.1060 (140) -0.1009 (152)
 CRD 20=   0.4895 (  3)  0.5020 (  4)  0.1374 ( 15)  0.3322 ( 20)  0.3590 ( 21)
           0.1899 ( 22)  0.1004 ( 54)
 CRD 21=   0.2861 (  3)  0.4157 (  4)  0.1598 (  8) -0.1244 (  9)  0.1069 ( 10)
          -0.1045 ( 19) -0.4162 ( 20) -0.2633 ( 21) -0.1184 ( 22) -0.1569 ( 23)
           0.1144 ( 29)  0.1154 ( 31)  0.1154 ( 32) -0.1222 ( 53)  0.1045 ( 58)
           0.1038 ( 71) -0.1414 ( 77)  0.1208 ( 97)  0.1316 (134)  0.1238 (142)
 CRD 22=   0.1212 (  3) -0.1312 (  8) -0.2294 (  9)  0.5318 ( 13) -0.1419 ( 20)
           0.1337 ( 22)  0.5790 ( 23)  0.1021 ( 53) -0.1063 ( 54)  0.2043 ( 63)
          -0.1074 (140) -0.1033 (148)
 CRD 23=  -0.5015 (  9) -0.3456 ( 13) -0.1331 ( 20) -0.2375 ( 21)  0.2804 ( 22)
          -0.1384 ( 29) -0.1755 ( 31) -0.1755 ( 32) -0.1338 ( 77) -0.1380 ( 97)
           0.1168 (121)  0.1141 (133)  0.1195 (142) -0.1212 (167)  0.1546 (170)
 CRD 24=   0.1120 (  4) -0.2613 (  8)  0.1726 (  9)  0.1364 ( 12)  0.1281 ( 13)
          -0.2688 ( 15) -0.1990 ( 17) -0.1069 ( 18)  0.2033 ( 20) -0.1401 ( 21)
           0.1149 ( 23) -0.3715 ( 53)  0.2682 ( 54)  0.1353 ( 71) -0.1474 ( 77)
          -0.2036 (120)  0.1950 (122)  0.1990 (133)  0.2051 (134) -0.1935 (141)
          -0.1997 (164) -0.1153 (173)
 CRD 25=  -0.4448 (  8) -0.2001 ( 13) -0.5796 ( 15) -0.2070 ( 51)  0.1882 ( 53)
          -0.1309 ( 54) -0.1069 (111)  0.1278 (120)  0.1396 (130)  0.1027 (131)
          -0.1026 (133)  0.1275 (141)  0.1166 (164)
 CRD 26=  -0.1035 (  4) -0.1006 (  5)  0.1270 (  7) -0.1036 (  8) -0.1277 ( 11)
           0.6124 ( 17)  0.3966 ( 22)  0.1192 ( 30)  0.1367 ( 31)  0.1367 ( 32)
          -0.1279 ( 33) -0.1201 ( 53)  0.1020 ( 54)  0.1243 ( 70) -0.1200 ( 90)
          -0.1187 ( 91) -0.1471 ( 92) -0.1132 ( 93) -0.1223 (141)  0.1160 (154)
 CRD 27=   0.2933 ( 13) -0.1116 ( 17)  0.2242 ( 22) -0.3472 ( 23)  0.1319 ( 50)
          -0.1525 ( 52)  0.1204 ( 64) -0.1099 ( 73)  0.1559 ( 80) -0.1323 ( 81)
          -0.1190 (127) -0.1587 (128) -0.2599 (130) -0.1348 (131) -0.2648 (132)
          -0.2448 (146) -0.1420 (147) -0.1489 (153) -0.1148 (158) -0.1371 (168)
          -0.1092 (172) -0.2399 (173)
 CRD 28=  -0.2232 (  4)  0.2454 (  7) -0.2015 (  8) -0.2147 (  9)  0.1520 ( 10)
           0.1238 ( 11) -0.3072 ( 12)  0.1190 ( 16) -0.2278 ( 17)  0.1564 ( 18)
          -0.1502 ( 20)  0.1347 ( 21) -0.1277 ( 22) -0.1404 ( 23)  0.1172 ( 54)
          -0.1173 ( 55) -0.1326 ( 62) -0.1769 ( 72) -0.1078 ( 92) -0.1236 ( 93)
          -0.1328 ( 94) -0.1386 ( 95) -0.1004 (120) -0.1073 (141) -0.1583 (146)
          -0.1059 (147) -0.1062 (158) -0.1337 (164)
 CRD 29=  -0.2300 (  3)  0.1016 (  4) -0.1005 (  5) -0.2304 (  7)  0.1547 (  9)
          -0.1717 ( 10) -0.1544 ( 17)  0.1441 ( 22) -0.1435 ( 40) -0.1209 ( 60)
           0.1080 ( 68) -0.1319 ( 69)  0.1054 ( 72) -0.1181 ( 74)  0.1563 ( 78)
           0.1202 ( 88) -0.1857 ( 89) -0.2888 ( 94) -0.1436 ( 95) -0.1954 ( 96)
           0.1554 (104)  0.1270 (113) -0.1226 (124)  0.1180 (127)  0.1679 (137)
           0.1501 (154)  0.1336 (155) -0.1452 (166)  0.1163 (172)
 CRD 30=  -0.1329 (  4)  0.3096 (  8) -0.1832 ( 12) -0.2396 ( 15) -0.1381 ( 17)
           0.1013 ( 18) -0.1240 ( 33)  0.1131 ( 34) -0.1180 ( 68)  0.1048 ( 70)
          -0.1074 (110) -0.1188 (111) -0.1788 (127) -0.2251 (128) -0.1361 (129)
           0.1676 (130)  0.1060 (131)  0.1714 (132) -0.1247 (144)  0.1494 (146)
           0.1657 (147) -0.1821 (152) -0.2137 (153)  0.1003 (159)  0.1619 (168)
          -0.1358 (171) -0.1674 (172)  0.1457 (173)
 CRD 31=  -0.2834 (  3)  0.2248 (  4)  0.3700 (  7)  0.2300 ( 10)  0.2238 ( 12)
          -0.2031 ( 17) -0.2051 ( 18) -0.1324 ( 26)  0.1510 ( 30) -0.1262 ( 34)
          -0.1020 ( 61)  0.1463 ( 76)  0.1011 ( 77) -0.1335 ( 91) -0.1202 ( 93)
          -0.1377 ( 94) -0.1519 ( 95) -0.1345 ( 96)  0.1064 (106)  0.1617 (120)
           0.1731 (141) -0.1025 (152) -0.1248 (153)  0.1829 (164)
 CRD 32=   0.1165 (  7)  0.1373 (  9)  0.2005 ( 10)  0.2794 ( 17) -0.1620 ( 19)
          -0.1179 ( 22)  0.1153 ( 34) -0.1287 ( 35) -0.1287 ( 42) -0.1134 ( 45)
           0.1145 ( 55)  0.1389 ( 71)  0.1149 ( 82)  0.1456 ( 86)  0.1465 ( 88)
           0.1158 ( 99) -0.1735 (101)  0.1018 (110)  0.1063 (125)  0.1515 (134)
          -0.1056 (140)  0.1937 (141)  0.1104 (144) -0.2073 (150) -0.1108 (151)
          -0.1609 (154) -0.1180 (160)  0.1901 (165) -0.2145 (167)  0.1087 (169)
 CRD 33=  -0.1910 (  3)  0.2534 (  4) -0.1907 (  7)  0.1608 ( 17)  0.1116 ( 19)
          -0.1744 ( 22)  0.1093 ( 25)  0.1405 ( 40) -0.1165 ( 58)  0.1193 ( 60)
           0.1059 ( 69) -0.1445 ( 82) -0.1399 ( 83) -0.2104 ( 84) -0.1565 ( 85)
          -0.1725 ( 86) -0.1227 ( 87) -0.3526 ( 88) -0.1593 ( 89) -0.2414 ( 91)
          -0.1022 ( 94) -0.1365 (104) -0.1921 (113) -0.1801 (137) -0.1194 (154)
          -0.1157 (155)
 CRD 34=   0.2444 (  3) -0.1748 (  4)  0.1794 (  9) -0.1467 ( 12) -0.1235 ( 13)
          -0.4316 ( 19)  0.1124 ( 20) -0.1141 ( 21)  0.1199 ( 23) -0.1319 ( 54)
           0.1630 ( 55)  0.1435 ( 71)  0.3165 ( 72) -0.1183 ( 83) -0.1191 ( 84)
           0.1036 ( 85) -0.1224 ( 86) -0.1523 ( 88) -0.1004 ( 94) -0.1079 ( 95)
          -0.1289 ( 96) -0.1081 (127)  0.1406 (133)  0.1133 (164)
 CRD 35=  -0.1270 (  7)  0.1934 ( 16) -0.1851 ( 18) -0.1821 ( 19) -0.2623 ( 20)
           0.1586 ( 21) -0.1006 ( 51)  0.1834 ( 54) -0.1953 ( 55)  0.1020 ( 64)
          -0.1338 ( 65) -0.1451 ( 66) -0.1988 ( 71)  0.1425 ( 72)  0.1861 ( 73)
           0.1719 ( 77)  0.1076 ( 98)  0.1505 (116) -0.1071 (118)  0.1193 (130)
           0.2172 (133)  0.1722 (138) -0.1383 (146) -0.2485 (148) -0.1032 (149)
          -0.1156 (158)  0.1135 (162)  0.1855 (164)
 CRD 36=  -0.1407 (  3)  0.1183 (  4) -0.1469 (  5) -0.1565 (  8) -0.1171 ( 11)
          -0.1533 ( 14)  0.2959 ( 15)  0.1550 ( 16) -0.1934 ( 18)  0.1438 ( 20)
           0.1241 ( 22)  0.1297 ( 23) -0.1129 ( 51)  0.1592 ( 52) -0.1176 ( 63)
           0.1988 ( 64) -0.1101 ( 66)  0.1380 ( 73)  0.1157 (116) -0.1040 (127)
          -0.1102 (129)  0.2983 (130)  0.1923 (131) -0.1567 (146) -0.1892 (147)
           0.1037 (161)  0.1016 (168)  0.1342 (173)
 CRD 37=  -0.1945 (  8)  0.1275 ( 10) -0.2490 ( 13)  0.1491 ( 14)  0.2061 ( 19)
          -0.3056 ( 20)  0.2361 ( 21)  0.1357 ( 22)  0.1492 ( 23)  0.1712 ( 34)
          -0.1144 ( 47)  0.1009 ( 50)  0.1628 ( 54) -0.1267 ( 55) -0.1353 ( 73)
           0.1083 ( 77) -0.1702 ( 80)  0.1870 (116)  0.1474 (118) -0.1485 (121)
          -0.1089 (129) -0.1664 (130)  0.1380 (146)  0.2099 (158) -0.1278 (168)
 CRD 38=  -0.1454 ( 13)  0.2590 ( 14) -0.2000 ( 19)  0.2657 ( 20) -0.2087 ( 21)
           0.1135 ( 50) -0.1770 ( 52) -0.1279 ( 54)  0.1484 ( 63) -0.1247 ( 65)
          -0.1341 ( 66) -0.1874 ( 80)  0.1959 ( 81)  0.1032 ( 84)  0.1816 (116)
          -0.1350 (128) -0.1847 (130) -0.1624 (131) -0.1792 (132) -0.1092 (134)
           0.1829 (138)  0.1128 (158)  0.1688 (161)  0.1071 (172)
 CRD 39=  -0.1195 (  9)  0.1106 ( 11)  0.2126 ( 12) -0.1946 ( 14) -0.1204 ( 15)
           0.1345 ( 16) -0.1977 ( 19) -0.1440 ( 21)  0.2016 ( 34) -0.1407 ( 40)
          -0.1516 ( 47) -0.1405 ( 48) -0.1405 ( 49) -0.1404 ( 50) -0.1522 ( 62)
           0.1070 ( 75)  0.1011 (111) -0.1038 (112) -0.1878 (113)  0.1606 (118)
          -0.2137 (121) -0.1081 (122) -0.1371 (123)  0.1881 (127)  0.1126 (129)
          -0.1144 (142) -0.1146 (153)
 CRD 40=   0.2344 (  9) -0.1739 ( 10)  0.1843 ( 12) -0.1027 ( 15) -0.1242 ( 20)
           0.2224 ( 21) -0.1059 ( 27) -0.1059 ( 28) -0.1125 ( 40)  0.1064 ( 61)
          -0.1188 ( 65)  0.1278 ( 69) -0.1278 ( 74) -0.1604 ( 77)  0.1250 ( 85)
          -0.1253 (106) -0.1526 (113) -0.1594 (118)  0.2647 (121)  0.1337 (122)
           0.1019 (127) -0.1217 (132) -0.1439 (140)  0.1899 (142) -0.1630 (155)
           0.1057 (168)  0.1402 (170)  0.1487 (173)
 CRD 41=  -0.2460 (  3) -0.1460 (  5)  0.1432 (  7)  0.1257 (  9) -0.1312 ( 12)
           0.2486 ( 18) -0.2519 ( 19)  0.1114 ( 21)  0.1889 ( 26)  0.1112 ( 27)
           0.1112 ( 28) -0.1177 ( 30)  0.1132 ( 35)  0.1132 ( 42)  0.1071 ( 44)
          -0.1135 ( 46)  0.1032 ( 51)  0.1240 ( 72) -0.1444 ( 85)  0.1013 ( 91)
           0.1450 ( 93)  0.1130 ( 94)  0.1510 ( 95)  0.1482 ( 96)  0.1488 ( 98)
           0.1071 (111)  0.1711 (121)  0.1219 (122)  0.1037 (140) -0.1018 (153)
           0.1053 (170)
 CRD 42=   0.1088 (  4) -0.1991 (  7)  0.1131 (  9) -0.2743 ( 10) -0.1503 ( 16)
           0.1119 ( 21)  0.1772 ( 23)  0.1611 ( 24) -0.1496 ( 26) -0.1327 ( 63)
           0.1132 ( 65)  0.1355 ( 74) -0.1574 ( 78)  0.1304 ( 83)  0.1079 ( 84)
           0.1435 ( 87)  0.1207 ( 88)  0.2468 ( 89) -0.1118 ( 91) -0.1245 ( 92)
          -0.1376 ( 93) -0.1321 ( 95)  0.1267 (118)  0.1274 (121)  0.1016 (124)
           0.1443 (140)  0.1108 (148) -0.1245 (150)  0.1719 (166)
 CRD 43=   0.1145 (  4) -0.1044 (  7) -0.1423 ( 11)  0.1988 ( 18) -0.2591 ( 19)
           0.1482 ( 22) -0.1948 ( 23) -0.1218 ( 26) -0.1129 ( 29)  0.1018 ( 33)
           0.1228 ( 40)  0.1151 ( 58)  0.1131 ( 63) -0.1515 ( 64)  0.1138 ( 66)
           0.1249 ( 89) -0.1459 ( 97)  0.1110 (101)  0.1120 (106) -0.1475 (114)
           0.1140 (128)  0.2050 (132)  0.1050 (142)  0.1507 (146)  0.1920 (147)
          -0.1249 (148)  0.1186 (150)  0.1990 (152)  0.1715 (153) -0.1218 (162)
          -0.1517 (165)  0.1440 (170)
 CRD 44=  -0.1409 (  9)  0.2420 ( 13)  0.1352 ( 14) -0.2286 ( 16) -0.1087 ( 52)
           0.1517 ( 54) -0.2296 ( 63)  0.1644 ( 67)  0.2019 ( 77)  0.1515 ( 81)
          -0.1560 (116)  0.1668 (120)  0.1773 (122) -0.1540 (131) -0.1943 (132)
           0.1094 (133) -0.1558 (138) -0.1742 (142) -0.1592 (161)  0.2028 (168)
          -0.1561 (170)  0.2638 (173)
 CRD 45=   0.1602 ( 13)  0.1389 ( 15) -0.2268 ( 16) -0.1797 ( 19)  0.1157 ( 26)
           0.1518 ( 50) -0.1056 ( 55) -0.1131 ( 61)  0.1474 ( 66)  0.1590 ( 76)
          -0.1139 ( 80) -0.1178 ( 89)  0.1031 ( 92)  0.1451 ( 97) -0.1381 (101)
          -0.1424 (107) -0.1059 (111)  0.1571 (114) -0.1208 (116) -0.1693 (120)
          -0.1902 (122) -0.1131 (124) -0.1553 (128) -0.1440 (129)  0.1344 (139)
           0.1027 (146) -0.1287 (154) -0.1178 (159) -0.1420 (161)  0.1041 (162)
           0.1687 (170)  0.1353 (171)  0.1356 (173)
 CRD 46=  -0.1378 (  8)  0.1073 ( 11) -0.1145 ( 12) -0.1427 ( 15)  0.1792 ( 16)
          -0.1744 ( 18)  0.1007 ( 22)  0.2187 ( 51) -0.1666 ( 61) -0.1050 ( 65)
           0.1337 ( 74) -0.1421 ( 79) -0.1041 ( 83) -0.1015 ( 85) -0.1106 ( 96)
           0.1999 (106) -0.1711 (110) -0.1215 (122)  0.1557 (124)  0.1060 (127)
           0.1774 (128) -0.1238 (131) -0.1479 (132)  0.1316 (142) -0.1618 (144)
          -0.1026 (154) -0.1010 (157)  0.1117 (158)  0.1130 (168)  0.1132 (170)
          -0.1516 (172)  0.2324 (173)
 CRD 47=  -0.2191 (  5) -0.1169 (  8) -0.1163 (  9) -0.1339 ( 10)  0.1187 ( 16)
           0.1262 ( 18)  0.1142 ( 19)  0.1320 ( 22) -0.1511 ( 23) -0.1182 ( 34)
           0.1049 ( 54)  0.1110 ( 61)  0.1099 ( 63) -0.1466 ( 76)  0.1490 ( 77)
          -0.1001 ( 81)  0.1179 ( 97) -0.1222 (101) -0.2368 (106) -0.1650 (118)
           0.1934 (120)  0.2155 (122)  0.1176 (132) -0.1872 (142) -0.1365 (144)
           0.1782 (146)  0.1354 (152) -0.1993 (154) -0.1036 (167) -0.1022 (169)
          -0.1742 (170)
 CRD 48=   0.1354 (  5)  0.2946 ( 11) -0.1107 ( 12) -0.1795 ( 14)  0.1500 ( 15)
          -0.1880 ( 40) -0.1721 ( 58)  0.1480 ( 68)  0.1235 ( 69) -0.1056 ( 75)
           0.1054 ( 79) -0.1026 ( 80) -0.1067 ( 97)  0.1113 (107) -0.1347 (111)
           0.1048 (112) -0.1488 (114)  0.1450 (124)  0.1316 (125) -0.2358 (128)
           0.1443 (132) -0.1303 (137)  0.1066 (143) -0.1289 (153) -0.1533 (156)
          -0.1188 (157) -0.1345 (162)  0.1466 (167) -0.1349 (168)  0.1816 (171)
           0.1207 (172)
 CRD 49=  -0.1216 (  5)  0.1866 (  7)  0.1204 (  8)  0.1240 ( 11)  0.1954 ( 19)
           0.1556 ( 26)  0.1210 ( 37)  0.1210 ( 38)  0.1122 ( 74) -0.1755 ( 78)
          -0.1470 ( 82) -0.1803 ( 83) -0.1788 ( 86)  0.1000 ( 92)  0.2004 ( 94)
          -0.1061 (102)  0.1516 (105)  0.1284 (110) -0.1364 (114)  0.2109 (124)
           0.1347 (136)  0.1203 (137)  0.1717 (153)  0.2070 (166)  0.1356 (172)
 CRD 50=   0.1621 (  5) -0.1457 (  8) -0.1711 ( 10)  0.1151 ( 12)  0.1945 ( 14)
          -0.1781 ( 22)  0.1058 ( 37)  0.1058 ( 38) -0.1013 ( 39) -0.1084 ( 59)
           0.1119 ( 60) -0.1628 ( 69)  0.1194 ( 70) -0.1291 ( 78) -0.1231 ( 82)
          -0.1510 ( 86) -0.1016 ( 87)  0.1157 ( 91) -0.1025 (102)  0.2087 (104)
           0.1036 (108)  0.1054 (115)  0.1598 (137)  0.1385 (143)  0.1386 (146)
          -0.1640 (151) -0.2054 (153)  0.2087 (154)  0.1062 (155) -0.1026 (159)
          -0.1348 (160)  0.1085 (166)  0.1117 (169) -0.1434 (172)  0.1126 (173)
 CRD 51=  -0.2802 ( 10) -0.3978 ( 19)  0.1010 ( 23) -0.1099 ( 34) -0.1221 ( 44)
           0.1310 ( 54) -0.1403 ( 55) -0.1989 ( 71)  0.1174 ( 77) -0.1594 ( 98)
          -0.1015 (101)  0.1002 (106)  0.1728 (107) -0.1075 (117) -0.1067 (133)
          -0.1011 (135) -0.1028 (143) -0.1019 (146)  0.1860 (148) -0.1129 (154)
           0.1287 (159)  0.1628 (161) -0.1420 (163) -0.1233 (164)  0.1084 (165)
          -0.1637 (170)
 CRD 52=  -0.1390 (  3)  0.1272 (  4) -0.1055 ( 18) -0.1125 ( 19)  0.1369 ( 24)
          -0.1107 ( 30) -0.1655 ( 44) -0.1145 ( 61)  0.1106 ( 62)  0.2189 ( 85)
           0.1018 ( 89)  0.2438 ( 97)  0.1549 ( 99)  0.1653 (100) -0.1245 (106)
          -0.1611 (107) -0.2493 (109) -0.1001 (113) -0.1878 (119) -0.1263 (126)
           0.1094 (134)  0.2240 (135)  0.1274 (141)  0.1187 (142)  0.1089 (148)
           0.2349 (156) -0.1033 (157) -0.2162 (162)
 CRD 53=  -0.1015 ( 10)  0.1432 ( 18) -0.1399 ( 61)  0.1255 ( 72)  0.1637 ( 76)
           0.4192 ( 87)  0.4426 ( 90)  0.1012 (103)  0.1468 (106)  0.4002 (126)
           0.3943 (145)  0.1164 (167)
 CRD 54=   0.1344 ( 10) -0.3231 ( 18) -0.2794 ( 19)  0.1041 ( 34) -0.1293 ( 55)
           0.2547 ( 61) -0.1107 ( 71) -0.2796 ( 72) -0.3426 ( 76)  0.1989 ( 87)
           0.1867 ( 90) -0.3012 (106)  0.1567 (121)  0.2053 (126) -0.1233 (133)
          -0.1247 (134)  0.1858 (145)

 THE DETERMINANT OF THE G MATRIX IS 10**(    -7)


                     --------------------
                     INTERNAL COORDINATES
                     --------------------

                 - - ATOMS - -         COORDINATE      COORDINATE
 NO.   TYPE    I  J  K  L  M  N        (BOHR,RAD)       (ANG,DEG)
 ----------------------------------------------------------------
   1 STRETCH   3  7                     2.8944279       1.5316654
   2 STRETCH   4 11                     2.5692143       1.3595698
   3 STRETCH   1  3                     2.2370784       1.1838110
   4 STRETCH   2  3                     2.2381783       1.1843930
   5 STRETCH   3 15                     3.0677446       1.6233806
   6 STRETCH   3  7                     2.8944279       1.5316654
   7 STRETCH   3  4                     2.3474099       1.2421959
   8 STRETCH   5  9                     2.1036086       1.1131818
   9 STRETCH   6 12                     2.0973898       1.1098909
  10 STRETCH   7 11                     2.5913260       1.3712707
  11 STRETCH   7 15                     2.8633976       1.5152448
  12 STRETCH   7 14                     2.0904529       1.1062201
  13 STRETCH   8 16                     2.0996682       1.1110967
  14 STRETCH   9 15                     2.8807931       1.5244502
  15 STRETCH   9 17                     2.0979016       1.1101618
  16 STRETCH   9 16                     2.8818336       1.5250008
  17 STRETCH  10 15                     2.0992696       1.1108857
  18 STRETCH  11 16                     2.8352008       1.5003237
  19 STRETCH  11 12                     2.8416170       1.5037191
  20 STRETCH  12 18                     2.0969479       1.1096571
  21 STRETCH  12 13                     2.0991210       1.1108071
  22 STRETCH  15 20                     2.1012893       1.1119545
  23 STRETCH  16 19                     2.0998098       1.1111716
  24 BEND      1  3  4                  1.9768098     113.2628597
  25 BEND      1  3 15                  0.8856425      50.7435767
  26 BEND      1  3  2                  2.2356009     128.0904964
  27 BEND      1  3  7                  1.8854053     108.0257668
  28 BEND      1  3  7                  1.8854053     108.0257668
  29 BEND      2  3 15                  1.7094797      97.9459706
  30 BEND      2  3  4                  1.8229712     104.4485578
  31 BEND      2  3  7                  1.0756225      61.6286309
  32 BEND      2  3  7                  1.0756225      61.6286309
  33 BEND      3 15 10                  1.2651080      72.4853475
  34 BEND      3  4 11                  2.2337644     127.9852733
  35 BEND      3  7 14                  2.0312048     116.3794649
  36 BEND      3 15  7                  1.0174786      58.2972302
  37 BEND      3  7 11                  1.8714338     107.2252562
  38 BEND      3  7 11                  1.8714338     107.2252562
  39 BEND      3 15  9                  1.4535585      83.2827670
  40 BEND      3 15 20                  2.8449893     163.0058794
  41 BEND      3  7 15                  1.1237554      64.3864441
  42 BEND      3  7 14                  2.0312048     116.3794649
  43 BEND      3  7 15                  1.1237554      64.3864441
  44 BEND      4 11 12                  2.2677836     129.9344271
  45 BEND      4  3 15                  1.5478332      88.6843122
  46 BEND      4 11 16                  1.3979988      80.0994302
  47 BEND      4 11  7                  1.0996627      63.0060304
  48 BEND      4  3  7                  1.0622921      60.8648561
  49 BEND      4  3  7                  1.0622921      60.8648561
  50 BEND      5  9 16                  1.8597153     106.5538365
  51 BEND      5  9 17                  1.8700690     107.1470636
  52 BEND      5  9 15                  1.8567323     106.3829236
  53 BEND      6 12 13                  0.6269135      35.9195002
  54 BEND      6 12 18                  1.9038828     109.0844469
  55 BEND      6 12 11                  1.6330703      93.5680357
  56 BEND      7  3 15                  1.0003586      57.3163257
  57 BEND      7  3 15                  1.0003586      57.3163257
  58 BEND      7 15 10                  2.0050087     114.8785374
  59 BEND      7 15  9                  1.7820256     102.1025487
  60 BEND      7 15 20                  1.8743895     107.3946059
  61 BEND      7 11 12                  2.1709558     124.3866023
  62 BEND      7 11 16                  1.9505058     111.7557518
  63 BEND      8 16 19                  1.9259473     110.3486511
  64 BEND      8 16 11                  1.9984624     114.5034602
  65 BEND      8 16  9                  1.9269910     110.4084496
  66 BEND      9 16 19                  1.9539365     111.9523147
  67 BEND      9 16 11                  1.7843764     102.2372382
  68 BEND      9 15 20                  1.9240353     110.2391041
  69 BEND      9 15 10                  1.9568336     112.1183037
  70 BEND     10 15 20                  1.9161509     109.7873599
  71 BEND     11 12 13                  1.0702545      61.3210658
  72 BEND     11 12 18                  2.2259550     127.5378268
  73 BEND     11 16 19                  1.8703324     107.1621519
  74 BEND     11  7 14                  2.1191955     121.4209553
  75 BEND     11  7 15                  1.8837382     107.9302484
  76 BEND     12 11 16                  2.1541533     123.4238931
  77 BEND     13 12 18                  2.4574571     140.8019175
  78 BEND     14  7 15                  2.1822254     125.0323028
  79 BEND     15  9 16                  1.8156774     104.0306492
  80 BEND     15  9 17                  2.0295191     116.2828797
  81 BEND     16  9 17                  2.0197408     115.7226259
  82 TORSION   1  3  7 15              -0.0339504      -1.9452174
  83 TORSION   1  3  7 11               1.7472009     100.1072381
  84 TORSION   1  3 15  9               1.2024343      68.8944113
  85 TORSION   1  3  4 11              -1.5678606     -89.8317975
  86 TORSION   1  3 15  7               3.0998952     177.6109131
  87 TORSION   1  3 15 20              -2.5718855    -147.3581865
  88 TORSION   1  3 15 10              -0.8180912     -46.8731711
  89 TORSION   1  3  7 14              -2.0972372    -120.1628415
  90 TORSION   2  3 15 20              -0.2391021     -13.6995430
  91 TORSION   2  3 15 10               1.5146922      86.7854724
  92 TORSION   2  3 15  9              -2.7479676    -157.4469452
  93 TORSION   2  3 15  7              -0.8505067     -48.7304435
  94 TORSION   2  3  7 14               0.0698367       4.0013453
  95 TORSION   2  3  7 15               2.1331234     122.2189695
  96 TORSION   2  3  7 11              -2.3689105    -135.7285751
  97 TORSION   2  3  4 11               0.9372570      53.7008727
  98 TORSION   3  7 11 12               2.2320503     127.8870621
  99 TORSION   3  7 11 16              -1.0378715     -59.4656566
 100 TORSION   3  7 11  4               0.1093238       6.2637940
 101 TORSION   3 15  7 14               1.8396912     105.4065405
 102 TORSION   3 15  7 11              -1.7619992    -100.9551175
 103 TORSION   3  7 15 20              -2.9648637    -169.8741777
 104 TORSION   3  7 15 10              -0.8279991     -47.4408511
 105 TORSION   3  7 15  9               1.2942270      74.1537456
 106 TORSION   3  4 11 12              -2.1462622    -122.9717648
 107 TORSION   3  4 11 16               1.9435731     111.3585368
 108 TORSION   3 15  9 16               1.5679885      89.8391213
 109 TORSION   3  4 11  7              -0.1637636      -9.3829641
 110 TORSION   3 15  9 17              -2.4726512    -141.6724760
 111 TORSION   3 15  9  5              -0.3921434     -22.4681592
 112 TORSION   4  3 15  9              -0.9257403     -53.0410127
 113 TORSION   4  3 15 10              -2.9462658    -168.8085951
 114 TORSION   4 11  7 14              -2.2864248    -131.0024939
 115 TORSION   4 11  7 15               1.2953094      74.2157606
 116 TORSION   4 11 16 19              -2.7917671    -159.9564695
 117 TORSION   4 11 16  9              -0.7346981     -42.0950999
 118 TORSION   4 11 16  8               1.3493267      77.3107243
 119 TORSION   4  3  7 11              -0.1221223      -6.9970951
 120 TORSION   4 11 12 13              -0.4173678     -23.9134109
 121 TORSION   4 11 12 18              -2.7547376    -157.8348397
 122 TORSION   4 11 12  6              -0.7047661     -40.3801250
 123 TORSION   4  3 15  7               0.9717206      55.6754891
 124 TORSION   4  3  7 14               2.3166248     132.7328253
 125 TORSION   4  3  7 15              -1.9032737    -109.0495506
 126 TORSION   4  3 15 20               1.5831251      90.7063895
 127 TORSION   5  9 15 20               2.9347157     168.1468261
 128 TORSION   5  9 15 10               0.7942883      45.5093654
 129 TORSION   5  9 15  7              -1.3607745     -77.9666367
 130 TORSION   5  9 16 19              -2.8424923    -162.8628112
 131 TORSION   5  9 16 11               1.4441958      82.7463217
 132 TORSION   5  9 16  8              -0.6893460     -39.4966178
 133 TORSION   6 12 11 16               1.1538190      66.1089607
 134 TORSION   6 12 11  7              -2.1306739    -122.0786235
 135 TORSION   7  3  4 11               0.1494535       8.5630546
 136 TORSION   7  3 15  9              -1.8974609    -108.7165017
 137 TORSION   7  3 15 10               2.3651989     135.5159159
 138 TORSION   7 11 16 19              -1.8223110    -104.4107276
 139 TORSION   7 11 16  9               0.2347580      13.4506420
 140 TORSION   7 11 16  8               2.3187828     132.8564662
 141 TORSION   7 11 12 13              -1.8432755    -105.6119095
 142 TORSION   7 11 12 18               2.1025399     120.4666618
 143 TORSION   7 15  9 16               0.5993573      34.3406438
 144 TORSION   7 15  9 17               2.8419030     162.8290465
 145 TORSION   7  3 15 20               0.6114046      35.0309004
 146 TORSION   8 16  9 17               1.3873553      79.4896058
 147 TORSION   8 16  9 15              -2.6473219    -151.6803733
 148 TORSION   8 16 11 12              -0.9496901     -54.4132339
 149 TORSION   9 16 11 12              -3.0337149    -173.8190581
 150 TORSION   9 15  7 14               3.1339182     179.5602861
 151 TORSION   9 15  7 11              -0.4677722     -26.8013719
 152 TORSION  10 15  9 16               2.7544201     157.8166459
 153 TORSION  10 15  9 17              -1.2862195     -73.6949514
 154 TORSION  10 15  7 14               1.0116921      57.9656894
 155 TORSION  10 15  7 11              -2.5899982    -148.3959687
 156 TORSION  11  4  3 15              -0.7708445     -44.1661364
 157 TORSION  11  7  3 15               1.7811514     102.0524555
 158 TORSION  11 16  9 17              -2.7622882    -158.2674547
 159 TORSION  11 16  9 15              -0.5137801     -29.4374338
 160 TORSION  11  7 15 20               1.5563224      89.1707047
 161 TORSION  12 11 16 19               1.1924015      68.3195723
 162 TORSION  12 11  7 14              -0.1636984      -9.3792258
 163 TORSION  12 11  7 15              -2.8651495    -164.1609713
 164 TORSION  13 12 11 16               1.4412174      82.5756747
 165 TORSION  14  7 11 16               2.8495651     163.2680556
 166 TORSION  14  7  3 15              -2.0632868    -118.2176241
 167 TORSION  14  7 15 20              -1.1251725     -64.4676372
 168 TORSION  15  9 16 19               1.4827171      84.9534333
 169 TORSION  15  7 11 16               0.1481141       8.4863100
 170 TORSION  16 11 12 18              -0.8961525     -51.3457541
 171 TORSION  16  9 15 20              -1.3883377     -79.5458933
 172 TORSION  17  9 15 20               0.8542079      48.9425093
 173 TORSION  17  9 16 19              -0.7657909     -43.8765875

     ------------------------------------------
     THE POINT GROUP IS C1 , NAXIS= 0, ORDER= 1
     ------------------------------------------

     DIMENSIONS OF THE SYMMETRY SUBSPACES ARE
 A   =   48

 ..... DONE SETTING UP THE RUN .....
 STEP CPU TIME =     0.04 TOTAL CPU TIME =          0.0 (      0.0 MIN)
 TOTAL WALL CLOCK TIME=          0.1 SECONDS, CPU UTILIZATION IS    57.14%


          -----------------------------
          STATIONARY POINT LOCATION RUN
          -----------------------------


           ** GEOMETRY CONSTRAINTS ARE BEING APPLIED. **

          TRANSFORMING DISPLACEMENT FROM INTERNALS TO CARTESIANS
          THE ROOT MEAN SQUARE ERROR IN ITERATION   1 IS   0.10867470
          THE ROOT MEAN SQUARE ERROR IN ITERATION   2 IS   0.00588607
          THE ROOT MEAN SQUARE ERROR IN ITERATION   3 IS   0.00000193
          THE ROOT MEAN SQUARE ERROR IN ITERATION   4 IS   0.00000000
 WARNING! THE RADIUS IN CARTESIANS IS    1.65333
 OBTAINING INITIAL HESSIAN, HESS=CALC    

     ---------------------------------
     HESSIAN MATRIX CONTROL PARAMETERS
     ---------------------------------
     METHOD=ANALYTIC   NVIB  =       2   VIBSIZ= 0.01000
     RDHESS=       F   PURIFY=       F   PRTIFC=       F
     VIBANL=       F   DECOMP=       F   PROJCT=       F
     SCLFAC= 1.00000   PRTSCN=       F   NPRT  =       0
     PULCOR=       F   NPUN  =       0   REDOVB=       T
     HSSTYP=GENERAL 
 Old integral subroutine is used

     ------------------------------
     CPHF RESPONSE SOLUTION OPTIONS
     ------------------------------
     POLAR  =       F     NWORD  =       0
     CPHF   =AO      

          ********************
          1 ELECTRON INTEGRALS
          ********************
 ...... END OF ONE-ELECTRON INTEGRALS ......
 STEP CPU TIME =     0.04 TOTAL CPU TIME =          0.1 (      0.0 MIN)
 TOTAL WALL CLOCK TIME=          0.1 SECONDS, CPU UTILIZATION IS    72.73%

          -------------
          GUESS OPTIONS
          -------------
          GUESS =HUCKEL            NORB  =       0          NORDER=       0
          MIX   =       F          PRTMO =       F          PUNMO =       F
          TOLZ  = 1.0E-08          TOLE  = 1.0E-05
          SYMDEN=       F          PURIFY=       F

 INITIAL GUESS ORBITALS GENERATED BY HUCKEL   ROUTINE.
 HUCKEL GUESS REQUIRES     39252 WORDS.

 SYMMETRIES FOR INITIAL GUESS ORBITALS FOLLOW.   BOTH SET(S).
    27 ORBITALS ARE OCCUPIED (    7 CORE ORBITALS).
     8=A        9=A       10=A       11=A       12=A       13=A       14=A   
    15=A       16=A       17=A       18=A       19=A       20=A       21=A   
    22=A       23=A       24=A       25=A       26=A       27=A       28=A   
    29=A       30=A       31=A       32=A       33=A       34=A       35=A   
    36=A       37=A   
 ...... END OF INITIAL ORBITAL SELECTION ......
 STEP CPU TIME =     0.02 TOTAL CPU TIME =          0.1 (      0.0 MIN)
 TOTAL WALL CLOCK TIME=          0.1 SECONDS, CPU UTILIZATION IS    76.92%

                    ----------------------
                    AO INTEGRAL TECHNOLOGY
                    ----------------------
     S,P,L SHELL ROTATED AXIS INTEGRALS, REPROGRAMMED BY
        KAZUYA ISHIMURA (IMS) AND JOSE SIERRA (SYNSTAR).
     S,P,D,L SHELL ROTATED AXIS INTEGRALS PROGRAMMED BY
        KAZUYA ISHIMURA (INSTITUTE FOR MOLECULAR SCIENCE).
     S,P,D,F,G SHELL TO TOTAL QUARTET ANGULAR MOMENTUM SUM 5,
        ERIC PROGRAM BY GRAHAM FLETCHER (ELORET AND NASA ADVANCED
        SUPERCOMPUTING DIVISION, AMES RESEARCH CENTER).
     S,P,D,F,G,L SHELL GENERAL RYS QUADRATURE PROGRAMMED BY
        MICHEL DUPUIS (PACIFIC NORTHWEST NATIONAL LABORATORY).

          --------------------
          2 ELECTRON INTEGRALS
          --------------------

 THE -PK- OPTION IS OFF, THE INTEGRALS ARE NOT IN SUPERMATRIX FORM.
 STORING   15000 INTEGRALS/RECORD ON DISK, USING 12 BYTES/INTEGRAL.
 TWO ELECTRON INTEGRAL EVALUATION REQUIRES   89734 WORDS OF MEMORY.
 SCHWARZ INEQUALITY OVERHEAD:      1165 INTEGRALS, T=        0.00
 II,JST,KST,LST =  1  1  1  1 NREC =         1 INTLOC =    1
 II,JST,KST,LST =  2  1  1  1 NREC =         1 INTLOC =    2
 II,JST,KST,LST =  3  1  1  1 NREC =         1 INTLOC =    7
 II,JST,KST,LST =  4  1  1  1 NREC =         1 INTLOC =   22
 II,JST,KST,LST =  5  1  1  1 NREC =         1 INTLOC =  320
 II,JST,KST,LST =  6  1  1  1 NREC =         1 INTLOC =  580
 II,JST,KST,LST =  7  1  1  1 NREC =         1 INTLOC =  949
 II,JST,KST,LST =  8  1  1  1 NREC =         1 INTLOC = 1452
 II,JST,KST,LST =  9  1  1  1 NREC =         1 INTLOC = 2056
 II,JST,KST,LST = 10  1  1  1 NREC =         1 INTLOC = 6963
 II,JST,KST,LST = 11  1  1  1 NREC =         1 INTLOC = 9000
 II,JST,KST,LST = 12  1  1  1 NREC =         1 INTLOC =11138
 II,JST,KST,LST = 13  1  1  1 NREC =         2 INTLOC =10828
 II,JST,KST,LST = 14  1  1  1 NREC =         3 INTLOC = 1095
 II,JST,KST,LST = 15  1  1  1 NREC =         3 INTLOC = 6514
 II,JST,KST,LST = 16  1  1  1 NREC =         5 INTLOC = 9304
 II,JST,KST,LST = 17  1  1  1 NREC =         6 INTLOC = 2614
 II,JST,KST,LST = 18  1  1  1 NREC =         9 INTLOC =11842
 II,JST,KST,LST = 19  1  1  1 NREC =        10 INTLOC =14367
 II,JST,KST,LST = 20  1  1  1 NREC =        12 INTLOC = 3578
 II,JST,KST,LST = 21  1  1  1 NREC =        13 INTLOC = 6172
 II,JST,KST,LST = 22  1  1  1 NREC =        20 INTLOC = 3591
 II,JST,KST,LST = 23  1  1  1 NREC =        22 INTLOC =  187
 II,JST,KST,LST = 24  1  1  1 NREC =        32 INTLOC =   76
 II,JST,KST,LST = 25  1  1  1 NREC =        34 INTLOC =13601
 II,JST,KST,LST = 26  1  1  1 NREC =        37 INTLOC =13742
 II,JST,KST,LST = 27  1  1  1 NREC =        41 INTLOC = 4271
 SCHWARZ INEQUALITY TEST SKIPPED        7716 INTEGRAL BLOCKS.
 TOTAL NUMBER OF NONZERO TWO-ELECTRON INTEGRALS =              657996
         44 INTEGRAL RECORDS WERE STORED ON DISK FILE  8.
  ...... END OF TWO-ELECTRON INTEGRALS .....
 STEP CPU TIME =     0.19 TOTAL CPU TIME =          0.3 (      0.0 MIN)
 TOTAL WALL CLOCK TIME=          0.3 SECONDS, CPU UTILIZATION IS    90.62%

          --------------------------
                 RHF SCF CALCULATION
          --------------------------

     NUCLEAR ENERGY =       316.8979399983
     MAXIT =   30     NPUNCH=    2
     EXTRAP=T  DAMP=F  SHIFT=F  RSTRCT=F  DIIS=F  DEM=F  SOSCF=T
     DENSITY MATRIX CONV=  1.00E-05
     SOSCF WILL OPTIMIZE     567 ORBITAL ROTATIONS, SOGTOL=   0.250
     MEMORY REQUIRED FOR RHF ITERS=     49068 WORDS.

 ITER EX DEM     TOTAL ENERGY        E CHANGE  DENSITY CHANGE     ORB. GRAD
   1  0  0     -254.8967720250  -254.8967720250   0.519007474   0.000000000
          ---------------START SECOND ORDER SCF---------------
   2  1  0     -255.4126635684    -0.5158915434   0.153963786   0.026322080
   3  2  0     -255.4539218625    -0.0412582942   0.064366714   0.014479357
   4  3  0     -255.4612893786    -0.0073675161   0.018879833   0.005007081
   5  4  0     -255.4619721743    -0.0006827957   0.009313094   0.002434092
   6  5  0     -255.4620588781    -0.0000867038   0.002655536   0.000806252
   7  6  0     -255.4620736380    -0.0000147599   0.000654515   0.000204325
   8  7  0     -255.4620753446    -0.0000017067   0.000311841   0.000060411
   9  8  0     -255.4620755018    -0.0000001571   0.000171575   0.000022197
  10  9  0     -255.4620755238    -0.0000000220   0.000028729   0.000004954
  11 10  0     -255.4620755256    -0.0000000018   0.000012086   0.000001986
  12 11  0     -255.4620755259    -0.0000000003   0.000003351   0.000000919
  13 12  0     -255.4620755259    -0.0000000000   0.000001033   0.000000250

          -----------------
          DENSITY CONVERGED
          -----------------
     TIME TO FORM FOCK OPERATORS=       0.1 SECONDS (       0.0 SEC/ITER)
     TIME TO SOLVE SCF EQUATIONS=       0.0 SECONDS (       0.0 SEC/ITER)

 FINAL RHF ENERGY IS     -255.4620755259 AFTER  13 ITERATIONS

          ------------
          EIGENVECTORS
          ------------

                      1          2          3          4          5
                  -11.0721   -11.0578   -11.0421   -11.0313   -10.9963
                     A          A          A          A          A   
    1  H  1  S   -0.000051  -0.000879  -0.000131  -0.001297  -0.000037
    2  H  2  S   -0.001376   0.000469  -0.000034  -0.000113  -0.000011
    3  B  3  S    0.000248   0.000295  -0.000037   0.000030  -0.000045
    4  B  3  S   -0.001344  -0.003017   0.000416   0.000419   0.000729
    5  B  3  X    0.000794  -0.001053  -0.000086  -0.000104  -0.000238
    6  B  3  Y    0.000014  -0.000102   0.000215  -0.000292   0.000417
    7  B  3  Z   -0.002083  -0.002769   0.000111  -0.000611   0.000192
    8  H  4  S   -0.000918   0.000681  -0.000744  -0.000739  -0.001798
    9  H  5  S    0.000202   0.000579   0.000224  -0.006384   0.000112
   10  H  6  S   -0.000034   0.000012  -0.000066  -0.000023   0.001730
   11  C  7  S    0.992276   0.010747   0.001470   0.000628  -0.002194
   12  C  7  S    0.034573  -0.004196   0.000201   0.000163  -0.007118
   13  C  7  X    0.000082  -0.003875  -0.000108  -0.000029   0.001587
   14  C  7  Y    0.001317  -0.000176  -0.000031  -0.000175  -0.003991
   15  C  7  Z    0.000349   0.000663   0.000009  -0.000021  -0.001574
   16  H  8  S   -0.000038  -0.000124  -0.006724  -0.000028   0.000050
   17  C  9  S   -0.000525  -0.003132  -0.016224   0.991816   0.000549
   18  C  9  S    0.000194  -0.006090  -0.005785   0.036805   0.000173
   19  C  9  X    0.000015   0.000346   0.002609  -0.000336  -0.000017
   20  C  9  Y   -0.000075   0.004123  -0.001781  -0.000902   0.000050
   21  C  9  Z    0.000027  -0.000993  -0.002434  -0.000382   0.000062
   22  H 10  S    0.000148  -0.005908  -0.000116   0.000438  -0.000049
   23  C 11  S    0.002932  -0.000480  -0.002090  -0.000555   0.991982
   24  C 11  S   -0.006607   0.000104  -0.005952   0.000102   0.036477
   25  C 11  X   -0.001209   0.000039  -0.003093  -0.000019   0.000160
   26  C 11  Y    0.003952   0.000065  -0.002931  -0.000019  -0.000647
   27  C 11  Z    0.001287   0.000018   0.000679   0.000006  -0.001243
   28  C 12  S   -0.000083  -0.000018  -0.000090  -0.000041  -0.000382
   29  C 12  S    0.000135  -0.000037   0.000108  -0.000061  -0.004736
   30  C 12  X    0.000073  -0.000012   0.000069  -0.000042  -0.003409
   31  C 12  Y   -0.000011   0.000032   0.000097  -0.000019   0.000758
   32  C 12  Z   -0.000004   0.000026   0.000031   0.000022   0.000813
   33  H 13  S    0.000052  -0.000026   0.000108   0.000053  -0.004971
   34  H 14  S   -0.006385  -0.000092  -0.000093  -0.000102   0.000123
   35  C 15  S   -0.009902   0.991708   0.003016   0.004097   0.000575
   36  C 15  S   -0.004648   0.037848   0.000252  -0.005652   0.000100
   37  C 15  X    0.003356  -0.000925   0.000158  -0.000739   0.000014
   38  C 15  Y    0.000228   0.001223  -0.000016  -0.004124  -0.000110
   39  C 15  Z   -0.001555  -0.000929  -0.000206   0.000669  -0.000011
   40  C 16  S   -0.001357  -0.003003   0.991855   0.017221   0.003055
   41  C 16  S   -0.000001  -0.000078   0.036828  -0.004561  -0.005731
   42  C 16  X   -0.000102   0.000037  -0.000305  -0.002697   0.003213
   43  C 16  Y    0.000174   0.000256  -0.000344   0.001721   0.002819
   44  C 16  Z    0.000002  -0.000147   0.000308   0.002434  -0.000685
   45  H 17  S   -0.000056   0.000158   0.000207  -0.006675  -0.000064
   46  H 18  S   -0.000026  -0.000006  -0.000029  -0.000001   0.000168
   47  H 19  S    0.000013   0.000083  -0.006781  -0.000075  -0.000246
   48  H 20  S   -0.000064  -0.006375  -0.000043   0.000035  -0.000072

                      6          7          8          9         10
                  -10.9071    -7.3424    -1.1379    -1.0651    -0.9345
                     A          A          A          A          A   
    1  H  1  S    0.000015  -0.005329   0.064551  -0.065334  -0.098630
    2  H  2  S    0.000017  -0.006857   0.024978  -0.015735  -0.036147
    3  B  3  S    0.000004   0.989764  -0.052132   0.037344   0.047125
    4  B  3  S   -0.000060   0.042628   0.076903  -0.056587  -0.084551
    5  B  3  X    0.000004   0.001180   0.017450  -0.023679  -0.036198
    6  B  3  Y   -0.000040   0.000738   0.012596  -0.005670   0.014657
    7  B  3  Z   -0.000016   0.007123   0.036277  -0.021178  -0.025704
    8  H  4  S    0.000145  -0.007091   0.044723  -0.022287  -0.000014
    9  H  5  S    0.000000  -0.002921   0.056697  -0.046592   0.023200
   10  H  6  S   -0.006546  -0.000012   0.062468   0.196837  -0.128257
   11  C  7  S    0.000115   0.000373  -0.096871   0.004122   0.012506
   12  C  7  S    0.000064  -0.002813   0.251020  -0.005851  -0.038611
   13  C  7  X   -0.000027  -0.000178   0.034962  -0.054508  -0.037770
   14  C  7  Y   -0.000199  -0.000268   0.056151   0.030626   0.062433
   15  C  7  Z    0.000112   0.002561  -0.013664   0.028761   0.038687
   16  H  8  S    0.000090   0.000118   0.031896   0.010274   0.127282
   17  C  9  S    0.000057   0.000068  -0.096493   0.064632  -0.050247
   18  C  9  S   -0.000049  -0.000116   0.243641  -0.169424   0.151696
   19  C  9  X    0.000064   0.000835  -0.041293   0.009166  -0.052267
   20  C  9  Y    0.000015   0.000746  -0.050837   0.050463   0.093704
   21  C  9  Z   -0.000013  -0.000051   0.006467   0.012472   0.057364
   22  H 10  S   -0.000009  -0.001843   0.073486  -0.074627  -0.139643
   23  C 11  S    0.001160  -0.000007  -0.099310  -0.093623  -0.053870
   24  C 11  S   -0.005801   0.000241   0.238348   0.225445   0.159102
   25  C 11  X    0.003542   0.000007   0.015933  -0.085464   0.119796
   26  C 11  Y   -0.000814  -0.000041  -0.006881   0.040633   0.044551
   27  C 11  Z   -0.002958  -0.000221  -0.026441   0.018105  -0.035044
   28  C 12  S    0.992015   0.000002  -0.051639  -0.130413   0.058160
   29  C 12  S    0.036293  -0.000020   0.118879   0.304280  -0.141480
   30  C 12  X    0.002754  -0.000000   0.031616   0.051132   0.012864
   31  C 12  Y    0.005322   0.000004   0.020337   0.066141  -0.038840
   32  C 12  Z   -0.003529   0.000013  -0.045722  -0.110102   0.046184
   33  H 13  S   -0.003274   0.000068   0.100584   0.262643  -0.125116
   34  H 14  S   -0.000245   0.000209   0.038880   0.000720  -0.021063
   35  C 15  S    0.000029   0.000275  -0.120937   0.090231   0.090898
   36  C 15  S   -0.000028  -0.003208   0.318856  -0.246814  -0.266034
   37  C 15  X    0.000026   0.002550  -0.046151   0.008825  -0.000090
   38  C 15  Y   -0.000013  -0.000085   0.046957  -0.028490   0.059107
   39  C 15  Z   -0.000021   0.002713  -0.040826   0.048001   0.077378
   40  C 16  S    0.000108  -0.000021  -0.075411  -0.014107  -0.166676
   41  C 16  S    0.000095   0.000173   0.193525   0.039540   0.478484
   42  C 16  X   -0.000041  -0.000002  -0.008597  -0.045813  -0.004637
   43  C 16  Y    0.000014  -0.000112  -0.045969  -0.003833  -0.023696
   44  C 16  Z    0.000056  -0.000134  -0.013694   0.020349  -0.003149
   45  H 17  S   -0.000014  -0.000132   0.037174  -0.031414   0.039023
   46  H 18  S   -0.006579  -0.000001   0.019458   0.058424  -0.035205
   47  H 19  S   -0.000048   0.000018   0.033564   0.008742   0.128440
   48  H 20  S    0.000014  -0.000564   0.053373  -0.043292  -0.051151

                     11         12         13         14         15
                   -0.9176    -0.7725    -0.7497    -0.6846    -0.6532
                     A          A          A          A          A   
    1  H  1  S   -0.072029  -0.005896   0.210194   0.080304  -0.149051
    2  H  2  S    0.041543  -0.023563   0.109097  -0.150818   0.029979
    3  B  3  S   -0.001880   0.036267  -0.126335   0.032118  -0.033128
    4  B  3  S    0.011483  -0.081045   0.276033  -0.082014   0.090052
    5  B  3  X   -0.045442   0.027094   0.049334   0.077898  -0.105762
    6  B  3  Y   -0.022541  -0.066760   0.009810   0.060409   0.068585
    7  B  3  Z    0.025320  -0.011440   0.034764  -0.039400   0.071082
    8  H  4  S    0.017071  -0.114931   0.136875  -0.018054   0.172172
    9  H  5  S   -0.113895  -0.211546   0.041911  -0.002826  -0.028989
   10  H  6  S   -0.129209   0.009359  -0.039453  -0.164911   0.169863
   11  C  7  S   -0.166102   0.052637   0.031063   0.065755   0.029030
   12  C  7  S    0.485674  -0.161437  -0.101513  -0.224231  -0.095956
   13  C  7  X   -0.017245   0.115487  -0.035034  -0.013358   0.209053
   14  C  7  Y    0.045052  -0.042965   0.007924   0.313210   0.120990
   15  C  7  Z    0.022813  -0.003662  -0.088972   0.077897  -0.168973
   16  H  8  S   -0.038685   0.103121   0.108229  -0.154025  -0.026198
   17  C  9  S    0.117799   0.102260   0.080942   0.013921   0.020649
   18  C  9  S   -0.342457  -0.321866  -0.265695  -0.047063  -0.066414
[...]
                   Z -0.00066864  0.00539384 -0.00160223 -0.00239917 -0.00010016
 19   H            X  0.07648440 -0.05083855 -0.00102453 -0.00187014  0.00036992
                   Y -0.18304011 -0.07702366 -0.00012940 -0.00061209  0.00051391
                   Z  0.08645624  0.02894641 -0.00150325 -0.00208463  0.00083057
 20   H            X -0.17322123 -0.08193354 -0.00024357 -0.00170377  0.00086741
                   Y  0.24063184 -0.00651948 -0.00038808 -0.00007333 -0.00077178
                   Z  0.17906159  0.02328402 -0.00080139  0.00077249  0.00064854

 TRANS. SAYVETZ    X  0.00000051 -0.00000011 -0.00000008 -0.00000019  0.00000012
                   Y -0.00000006 -0.00000017 -0.00000015 -0.00000004 -0.00000003
                   Z -0.00000006  0.00000090  0.00000042  0.00000030 -0.00000001
               TOTAL  0.00000052  0.00000092  0.00000045  0.00000036  0.00000013

   ROT. SAYVETZ    X -0.00099336  0.02559787 -0.02362707 -0.02892206 -0.00121096
                   Y -0.00039597  0.02018409 -0.00888621 -0.01089114  0.00214108
                   Z  0.00023368 -0.00597628  0.00675513  0.00861703  0.00112259
               TOTAL  0.00109461  0.03314158  0.02613111  0.03208357  0.00270386

                           51          52          53          54          55
       FREQUENCY:      3572.78     3605.95     3610.10     3633.56     3726.37  
        SYMMETRY:         A           A           A           A           A   
    REDUCED MASS:      1.03935     1.06733     1.06711     1.06844     1.10991
    IR INTENSITY:      0.00430     0.03484     0.01828     0.01419     0.00178

  1   H            X -0.00121376  0.00116356 -0.00141775 -0.00260514 -0.00252371
                   Y  0.00014017 -0.00038913  0.00011263 -0.00042632  0.00065352
                   Z  0.00065241 -0.00024091  0.00053187  0.00096033  0.00125756
  2   H            X -0.00023339 -0.00066799 -0.00000675  0.00009963 -0.00064684
                   Y  0.00032707 -0.00026166  0.00026322  0.00006357 -0.00039579
                   Z  0.00026200 -0.00014333 -0.00001599  0.00009004  0.00035314
  3   B            X  0.00014419  0.00011662  0.00034455  0.00004891  0.00034516
                   Y -0.00028873  0.00005417 -0.00028438 -0.00010697 -0.00021658
                   Z  0.00009804  0.00020742  0.00011910 -0.00018683 -0.00019609
  4   H            X -0.00174223  0.00022614 -0.00069334 -0.00007496 -0.00055524
                   Y  0.00357860 -0.00101187  0.00516731  0.00001964  0.00171207
                   Z  0.00157658 -0.00039584  0.00077035  0.00001710  0.00097169
  5   H            X  0.00010362 -0.00511788 -0.01008254 -0.07509352  0.00389071
                   Y  0.00013075 -0.00957248 -0.00627419 -0.08308300  0.00173119
                   Z -0.00106922  0.04717542  0.06407449  0.64971430 -0.03805822
  6   H            X -0.28975794  0.00100361 -0.00267297 -0.00016087 -0.00079719
                   Y -0.42353071  0.00166048 -0.00317913 -0.00019289 -0.00130407
                   Z -0.05557830  0.00024224 -0.00015777 -0.00001746 -0.00016785
  7   C            X -0.00016327  0.00092740  0.00008375  0.00017138  0.00130051
                   Y  0.00033556 -0.00233727 -0.00009176  0.00053029  0.00502242
                   Z  0.00005879  0.00029775  0.00012022 -0.00014576 -0.00095949
  8   H            X  0.00057732  0.01217987 -0.16650330  0.01431112 -0.02615099
                   Y -0.00105645 -0.02812646  0.40306441 -0.03182205  0.06256096
                   Z  0.00114318  0.02463196 -0.35531253  0.02979344 -0.05314048
  9   C            X -0.00009320  0.00607380  0.00535184  0.05630622  0.00358945
                   Y -0.00007594  0.00028738  0.00547506  0.03148711  0.00211851
                   Z  0.00002500 -0.00071701 -0.00094935 -0.02886115  0.00619365
 10   H            X  0.00095042  0.21447785  0.01133648 -0.01278339 -0.30228396
                   Y -0.00125572 -0.31898638 -0.01590511  0.02083049  0.44477117
                   Z -0.00174845 -0.40133038 -0.02077763  0.02699511  0.54426998
 11   C            X -0.00259369  0.00039350  0.00108188 -0.00061572 -0.00008702
                   Y  0.00039855 -0.00010751  0.00153718 -0.00003264 -0.00032274
                   Z  0.00080750 -0.00000212 -0.00029473  0.00020717 -0.00016290
 12   C            X  0.04290284 -0.00021026  0.00026495  0.00006479  0.00010424
                   Y -0.01059624 -0.00003664  0.00002655 -0.00010515  0.00008259
                   Z -0.02825653  0.00006676  0.00014487 -0.00011622  0.00018324
 13   H            X -0.23780441  0.00067373 -0.00149298 -0.00023752 -0.00093364
                   Y  0.40487627 -0.00120713  0.00227493  0.00058484  0.00133198
                   Z -0.24723114  0.00063624 -0.00146387 -0.00037289 -0.00059114
 14   H            X -0.00145929  0.00997206  0.00169386 -0.00568352 -0.02426982
                   Y -0.00389793  0.02432157  0.00586997 -0.01124198 -0.05173454
                   Z  0.00121145 -0.00626512 -0.00209424  0.00317566  0.01585878
 15   C            X -0.00016103 -0.04865918 -0.00305939  0.00358521  0.00703574
                   Y  0.00016971  0.04528912  0.00235196 -0.00610747 -0.02770090
                   Z -0.00008555 -0.02426440 -0.00132234  0.00478717 -0.08577530
 16   C            X -0.00018876 -0.00087762  0.00838126 -0.00286022  0.00262066
                   Y  0.00029355  0.00393988 -0.06288508  0.00692759 -0.00286013
                   Z  0.00029909  0.00202241 -0.03081215  0.00604928  0.00971533
 17   H            X  0.00107648 -0.05769068 -0.07321527 -0.54371048 -0.04664368
                   Y  0.00058613 -0.02675006 -0.03669796 -0.26381409 -0.02089951
                   Z  0.00072044 -0.03360334 -0.04359428 -0.33323612 -0.02757558
 18   H            X  0.05488981 -0.00002565  0.00006220  0.00018992 -0.00001452
                   Y  0.13815101 -0.00049517  0.00027787  0.00030429 -0.00052843
                   Z  0.62384529 -0.00206889  0.00088649  0.00135978 -0.00233005
 19   H            X -0.00052533 -0.00521387  0.07621723 -0.01226127 -0.00639311
                   Y -0.00155226 -0.01886220  0.29695604 -0.03644198 -0.02638179
                   Z -0.00366159 -0.04577567  0.71125308 -0.08775177 -0.06208866
 20   H            X  0.00082797  0.33202713  0.01888777 -0.03706571  0.23014548
                   Y -0.00052778 -0.18094818 -0.01078352  0.01703814 -0.12743224
                   Z  0.00209667  0.68392561  0.03887534 -0.07341688  0.46645138

 TRANS. SAYVETZ    X -0.00000019 -0.00000056  0.00000006  0.00000015  0.00000013
                   Y  0.00000019  0.00000021 -0.00000039  0.00000015 -0.00000006
                   Z -0.00000033 -0.00000026 -0.00000026  0.00000033 -0.00000008
               TOTAL  0.00000043  0.00000066  0.00000047  0.00000039  0.00000016

   ROT. SAYVETZ    X -0.00008005  0.00004403 -0.00013286  0.00002648 -0.00018074
                   Y  0.00000819  0.00003174 -0.00012037  0.00003022 -0.00001126
                   Z  0.00005312 -0.00002147  0.00002766 -0.00001287  0.00008595
               TOTAL  0.00009642  0.00005837  0.00018140  0.00004219  0.00020045

                           56          57          58          59          60
       FREQUENCY:      3730.91     3744.27     3747.17     3751.51     3771.16  
        SYMMETRY:         A           A           A           A           A   
    REDUCED MASS:      1.11036     1.10720     1.09999     1.11140     1.11023
    IR INTENSITY:      0.00199     0.01661     0.47186     0.01033     0.01543

  1   H            X -0.00027924  0.00131947  0.00236744 -0.00280510  0.00010446
                   Y  0.00016541 -0.00021774 -0.00067166 -0.00050761  0.00025128
                   Z  0.00009120 -0.00010651 -0.00054245  0.00077429 -0.00006937
  2   H            X  0.00049439  0.00038324  0.00136849 -0.00095491  0.00070327
                   Y  0.00086613 -0.00003021  0.00154008 -0.00089339  0.00033340
                   Z -0.00049953 -0.00031073 -0.00070255  0.00040029 -0.00054262
  3   B            X  0.00005342 -0.00031008 -0.00097382  0.00031116  0.00007983
                   Y -0.00034155  0.00044024  0.00146171 -0.00009741 -0.00022430
                   Z  0.00008307  0.00000061 -0.00029167 -0.00012477  0.00004907
  4   H            X -0.00081975  0.00107488  0.00040590 -0.00022559 -0.00153878
                   Y  0.00353665 -0.00273908 -0.00543580  0.00053021  0.00282375
                   Z -0.00071955 -0.00043964 -0.00722324  0.00075299  0.00034214
  5   H            X -0.00437513  0.00042106 -0.00766998 -0.08355361 -0.00000913
                   Y -0.00877870  0.00054510 -0.00847717 -0.08887116  0.00008121
                   Z  0.06197048 -0.00456043  0.06080274  0.66784405 -0.00038659
  6   H            X  0.00497588  0.18931909 -0.03268160  0.00385115  0.40780132
                   Y  0.00740916  0.28015742 -0.04817266  0.00562060  0.59755258
                   Z  0.00077208  0.03135857 -0.00538802  0.00061029  0.07742293
  7   C            X -0.00039453 -0.00523076 -0.03227664  0.00282973 -0.00029524
                   Y -0.00154846 -0.01232238 -0.07596014  0.00670579  0.00002330
                   Z  0.00046873  0.00338013  0.02105181 -0.00183268  0.00017917
  8   H            X -0.22499630  0.00526962  0.00576593  0.02180536  0.00001192
                   Y  0.55222074 -0.01325935 -0.01232508 -0.05078046  0.00049723
                   Z -0.47159436  0.01116155  0.01001904  0.04370901 -0.00031497
  9   C            X -0.00595740  0.00054212 -0.00175038 -0.03601080  0.00000847
                   Y -0.00196009  0.00026455 -0.00031073 -0.01343606  0.00003853
                   Z -0.00953212  0.00069396 -0.00699851 -0.08255668  0.00004480
 10   H            X  0.03371377 -0.00585137 -0.02813055 -0.01937120 -0.00028169
                   Y -0.04857060  0.00837123  0.03873327  0.03072805  0.00035604
                   Z -0.06036031  0.01039951  0.04805597  0.03668597  0.00038367
 11   C            X  0.00041710  0.00025546 -0.00289628  0.00047144  0.00028167
                   Y  0.00088525  0.00052597  0.00527831 -0.00054542  0.00019699
                   Z -0.00016661 -0.00022178  0.00048128 -0.00017786 -0.00017840
 12   C            X -0.00112465 -0.04131126  0.00730929 -0.00083689 -0.01289050
                   Y -0.00005567 -0.00235691  0.00030100 -0.00002770 -0.09019370
                   Z -0.00191028 -0.07907559  0.01265431 -0.00147037  0.00947861
 13   H            X  0.00565949  0.23169026 -0.03775373  0.00429393 -0.26640718
                   Y -0.01017339 -0.40153237  0.06618216 -0.00755010  0.45505344
                   Z  0.00599343  0.23675012 -0.03987061  0.00456458 -0.27700877
 14   H            X  0.00840140  0.06268005  0.38263161 -0.03239920  0.00029952
                   Y  0.01829280  0.13370582  0.81545808 -0.06972958  0.00118656
                   Z -0.00416996 -0.03827679 -0.23658239  0.01987266 -0.00038840
 15   C            X -0.00121098  0.00081373  0.00460993 -0.00042219  0.00003775
                   Y  0.00350625 -0.00053133 -0.00228448 -0.00124176  0.00001677
                   Z  0.00912428 -0.00141021 -0.00568507 -0.00664816 -0.00003359
 16   C            X  0.02345986 -0.00049570 -0.00076576 -0.00199610  0.00028566
                   Y -0.03030715  0.00070241  0.00127453  0.00199283 -0.00005522
                   Z  0.08182995 -0.00207902 -0.00130561 -0.00846144 -0.00021168
 17   H            X  0.06891560 -0.00550134  0.03501214  0.50515982  0.00013140
                   Y  0.03487597 -0.00273777  0.01711601  0.24571515  0.00000755
                   Z  0.04189105 -0.00339491  0.02072418  0.30355509  0.00000272
 18   H            X  0.00155174  0.06032338 -0.00992371  0.00105388  0.00792088
                   Y  0.00345649  0.15161944 -0.02417245  0.00283741  0.01535370
                   Z  0.01576573  0.67674041 -0.10748742  0.01255480  0.08866945
 19   H            X -0.05185557  0.00156297  0.00079814  0.00344361  0.00013106
                   Y -0.21085196  0.00587145  0.00269205  0.02935892  0.00026221
                   Z -0.49453399  0.01352310  0.00586272  0.06449314  0.00084912
 20   H            X -0.02282736  0.00158056  0.00528472  0.02452956 -0.00004402
                   Y  0.01229405 -0.00122871 -0.00469681 -0.01737657 -0.00001166
                   Z -0.04584473  0.00436560  0.01502165  0.04988810  0.00002244

 TRANS. SAYVETZ    X  0.00000010 -0.00000001 -0.00000019 -0.00000006 -0.00000002
                   Y -0.00000005 -0.00000001 -0.00000010 -0.00000001 -0.00000014
                   Z  0.00000001 -0.00000005  0.00000011 -0.00000005  0.00000003
               TOTAL  0.00000011  0.00000005  0.00000024  0.00000008  0.00000014

   ROT. SAYVETZ    X -0.00008643  0.00032911  0.00168006 -0.00014623 -0.00007368
                   Y -0.00004659 -0.00009850 -0.00058391  0.00004490 -0.00005862
                   Z -0.00001468 -0.00016247 -0.00087293  0.00010344 -0.00000479
               TOTAL  0.00009928  0.00038002  0.00198131  0.00018465  0.00009428

 REFERENCE ON SAYVETZ CONDITIONS - A. SAYVETZ, J.CHEM.PHYS., 7, 383-389(1939).

 NOTE - THE MODES J,K ARE ORTHONORMALIZED ACCORDING TO
 SUM ON I   M(I) * (X(I,J)*X(I,K) + Y(I,J)*Y(I,K) + Z(I,J)*Z(I,K)) = DELTA(J,K)

  MODE FREQ(CM**-1)  SYMMETRY  RED. MASS  IR INTENS.
     1      69.522    A        2.365689    0.061407
     2      35.594    A        2.787759    0.095390
     3       0.009    A        4.805941    0.000000
     4       0.003    A        4.805530    0.000000
     5       0.006    A        4.805526    0.000000
     6       7.562    A        3.155036    0.011757
     7     117.551    A        1.382252    0.082158
     8     184.027    A        1.394942    0.169995
     9     231.553    A        1.476812    0.232396
    10     242.474    A        3.086503    0.700726
    11     289.790    A        1.823235    0.126933
    12     333.894    A        2.500145    0.005696
    13     348.159    A        2.324284    0.116955
    14     394.299    A        2.968430    0.105497
    15     531.387    A        2.627583    0.361361
    16     658.803    A        3.477887    0.026203
    17     768.144    A        2.196022    0.026264
    18     907.830    A        1.129456    0.708408
    19     933.961    A        1.739111    0.067998
    20    1006.764    A        1.866427    0.080315
    21    1018.929    A        1.439948    0.164413
    22    1052.233    A        1.425097    0.015891
    23    1087.859    A        2.135075    0.032810
    24    1122.367    A        1.494926    0.020358
    25    1123.751    A        1.416191    0.251895
    26    1207.952    A        1.339956    0.228908
    27    1241.758    A        1.481734    0.114177
    28    1249.860    A        1.372042    0.060522
    29    1298.463    A        1.655633    0.032819
    30    1372.994    A        1.215801    0.130817
    31    1381.758    A        1.960025    0.116956
    32    1430.210    A        1.142649    6.117479
    33    1466.421    A        1.218350    0.125771
    34    1487.539    A        1.261394    0.010066
    35    1506.226    A        1.442160    0.017799
    36    1535.402    A        1.097800    0.416411
    37    1540.234    A        1.074606    0.318129
    38    1613.689    A        1.850045    0.094708
    39    1627.859    A        1.704137    0.006080
    40    1642.441    A        1.921847    0.020550
    41    1717.189    A        1.312252    0.030285
    42    1799.542    A        1.087770    0.063576
    43    1803.322    A        1.082678    0.045896
    44    1806.849    A        1.062579    0.106354
    45    1812.411    A        1.108984    0.001866
    46    1830.437    A        1.125534    0.008175
    47    1915.873    A        5.224766    0.268701
    48    3099.287    A        1.019320    0.039929
    49    3276.442    A        1.118256    0.431955
    50    3316.237    A        1.132030    0.619957
    51    3572.775    A        1.039351    0.004304
    52    3605.946    A        1.067333    0.034835
    53    3610.100    A        1.067111    0.018278
    54    3633.560    A        1.068444    0.014191
    55    3726.371    A        1.109913    0.001775
    56    3730.907    A        1.110362    0.001992
    57    3744.267    A        1.107200    0.016611
    58    3747.168    A        1.099994    0.471862
    59    3751.514    A        1.111401    0.010327
    60    3771.162    A        1.110232    0.015430

     -------------------------------
     THERMOCHEMISTRY AT T=  298.15 K
     -------------------------------

 USING IDEAL GAS, RIGID ROTOR, HARMONIC NORMAL MODE APPROXIMATIONS.
 P=  1.01325E+05 PASCAL.
 ALL FREQUENCIES ARE SCALED BY   1.00000
 THE MOMENTS OF INERTIA ARE (IN AMU*BOHR**2)
            468.81244           767.30701           908.29379
 THE ROTATIONAL SYMMETRY NUMBER IS  1.0
 THE ROTATIONAL CONSTANTS ARE (IN GHZ)
      3.84608     2.34989     1.98514
      7 -     60 VIBRATIONAL MODES ARE USED IN THERMOCHEMISTRY.
 THE HARMONIC ZERO POINT ENERGY IS (SCALED BY   1.000)
        0.212389 HARTREE/MOLECULE    46613.970383 CM**-1/MOLECULE 
      133.276163 KCAL/MOL              557.627466 KJ/MOL

               Q               LN Q
 ELEC.     1.00000E+00       0.000000
 TRANS.    3.70351E+07      17.427377
 ROT.      2.04616E+05      12.228888
 VIB.      2.54061E+01       3.234991
 TOT.      1.92527E+14      32.891256

              E         H         G         CV        CP        S
           KJ/MOL    KJ/MOL    KJ/MOL   J/MOL-K   J/MOL-K   J/MOL-K
 ELEC.      0.000     0.000     0.000     0.000     0.000     0.000
 TRANS.     3.718     6.197   -43.201    12.472    20.786   165.684
 ROT.       3.718     3.718   -30.315    12.472    12.472   114.148
 VIB.     569.708   569.708   549.608    88.020    88.020    67.414
 TOTAL    577.144   579.623   476.092   112.963   121.277   347.246
 VIB. THERMAL CORRECTION E(T)-E(0) = H(T)-H(0) =     12080.072 J/MOL

              E         H         G         CV        CP        S
         KCAL/MOL  KCAL/MOL  KCAL/MOL CAL/MOL-K CAL/MOL-K CAL/MOL-K
 ELEC.      0.000     0.000     0.000     0.000     0.000     0.000
 TRANS.     0.889     1.481   -10.325     2.981     4.968    39.600
 ROT.       0.889     0.889    -7.245     2.981     2.981    27.282
 VIB.     136.163   136.163   131.359    21.037    21.037    16.112
 TOTAL    137.941   138.533   113.789    26.999    28.986    82.994
 VIB. THERMAL CORRECTION E(T)-E(0) = H(T)-H(0) =      2887.206 CAL/MOL

     *******************************************************
     * THIS IS NOT A STATIONARY POINT ON THE MOLECULAR PES *
     *     THE VIBRATIONAL ANALYSIS IS NOT VALID !!!       *
     *******************************************************
 ......END OF NORMAL COORDINATE ANALYSIS......
 STEP CPU TIME =     0.02 TOTAL CPU TIME =        136.7 (      2.3 MIN)
 TOTAL WALL CLOCK TIME=        138.6 SECONDS, CPU UTILIZATION IS    98.66%
               580000  WORDS OF DYNAMIC MEMORY USED
 EXECUTION OF GAMESS TERMINATED NORMALLY Tue Nov 16 06:08:15 2021
 DDI: 263640 bytes (0.3 MB / 0 MWords) used by master data server.

 ----------------------------------------
 CPU timing information for all processes
 ========================================
 0: 134.149 + 2.550 = 136.699
 ----------------------------------------
 ddikick.x: exited gracefully.
----- accounting info -----
Files used on the master node chemcompute-node-0.novalocal were:
-rw-r--r--. 1 chemcomp chemcomp     1348 Nov 16 06:05 /scratch/307435/343476.F05
-rw-rw-r--. 1 chemcomp chemcomp  8100720 Nov 16 06:07 /scratch/307435/343476.F08
-rw-rw-r--. 1 chemcomp chemcomp 85196800 Nov 16 06:08 /scratch/307435/343476.F10
-rw-rw-r--. 1 chemcomp chemcomp   564960 Nov 16 06:08 /scratch/307435/343476.F18
Tue Nov 16 06:08:18 UTC 2021
0.124u 0.085s 2:22.12 0.1%	0+0k 8+224io 0pf+0w
Finishing Up...
Looking for IR data...
Looking for Raman data...
vibramans not found
Looking for thermodynamics data...
Looking for UV-Vis data...
307435
