----- GAMESS execution script 'rungms' -----
This job is running on host chemcompute-node-0.novalocal
under operating system Linux at Tue Nov 16 06:16:59 UTC 2021
SLURM has assigned the following compute nodes to this run:
chemcompute-node-0
Available scratch disk space (Kbyte units) at beginning of the job is
Filesystem     1K-blocks     Used Available Use% Mounted on
/dev/sda1       62903276 16903532  45999744  27% /
GAMESS temporary binary files will be written to /scratch/307500
GAMESS supplementary output files will be written to /data/slurm/343541
Copying input file 343541.inp to your run's scratch directory...
The generated host list is
chemcompute-node-0.novalocal

 Distributed Data Interface kickoff program.
 Initiating 1 compute processes on 1 nodes to run the following command:
 /data/gamess-2019R1-ddi/gamess.00.x 343541 

          ******************************************************
          *         GAMESS VERSION = 30 JUN 2019 (R1)          *
          *             FROM IOWA STATE UNIVERSITY             *
          * M.W.SCHMIDT, K.K.BALDRIDGE, J.A.BOATZ, S.T.ELBERT, *
          *   M.S.GORDON, J.H.JENSEN, S.KOSEKI, N.MATSUNAGA,   *
          *          K.A.NGUYEN, S.J.SU, T.L.WINDUS,           *
          *       TOGETHER WITH M.DUPUIS, J.A.MONTGOMERY       *
          *         J.COMPUT.CHEM.  14, 1347-1363(1993)        *
          **************** 64 BIT LINUX VERSION ****************

  SINCE 1993, STUDENTS AND POSTDOCS WORKING AT IOWA STATE UNIVERSITY
  AND ALSO IN THEIR VARIOUS JOBS AFTER LEAVING ISU HAVE MADE IMPORTANT
  CONTRIBUTIONS TO THE CODE:
     IVANA ADAMOVIC, CHRISTINE AIKENS, YURI ALEXEEV, POOJA ARORA,
     ANDREY ASADCHEV, ROB BELL, PRADIPTA BANDYOPADHYAY, JONATHAN BENTZ,
     COLLEEN BERTONI, BRETT BODE, KURT BRORSEN, CALEB CARLIN, GALINA CHABAN,
     WEI CHEN, CHEOL HO CHOI, PAUL DAY, ALBERT DEFUSCO, NUWAN DESILVA,
     TIM DUDLEY, DMITRI FEDOROV, ALEX FINDLATER, GRAHAM FLETCHER, 
     MARK FREITAG, KURT GLAESEMANN, ANASTASIA GUNINA,
     DAN KEMP, GRANT MERRILL, NORIYUKI MINEZAWA, JONATHAN MULLIN,
     TAKESHI NAGATA, SEAN NEDD, HEATHER NETZLOFF, BOSILJKA NJEGIC, RYAN OLSON,
     MIKE PAK, BUU PHAM,
     SPENCER PRUITT, LUKE ROSKOP, JIM SHOEMAKER, LYUDMILA SLIPCHENKO,
     TONY SMITH, SAROM SOK LEANG, JIE SONG, TETSUYA TAKETSUGU, SIMON WEBB,
     PENG XU, SOOHAENG YOO, FEDERICO ZAHARIEV

  ADDITIONAL CODE HAS BEEN PROVIDED BY COLLABORATORS IN OTHER GROUPS:
     IOWA STATE UNIVERSITY:
          JOE IVANIC, AARON WEST, LAIMUTIS BYTAUTAS, KLAUS RUEDENBERG
     UNIVERSITY OF TOKYO: KIMIHIKO HIRAO, TAKAHITO NAKAJIMA,
          TAKAO TSUNEDA, MUNEAKI KAMIYA, SUSUMU YANAGISAWA,
          KIYOSHI YAGI, MAHITO CHIBA, SEIKEN TOKURA, NAOAKI KAWAKAMI
     UNIVERSITY OF AARHUS: FRANK JENSEN
     UNIVERSITY OF IOWA: VISVALDAS KAIRYS, HUI LI
     NATIONAL INST. OF STANDARDS AND TECHNOLOGY: WALT STEVENS, DAVID GARMER
     UNIVERSITY OF PISA: BENEDETTA MENNUCCI, JACOPO TOMASI
     UNIVERSITY OF MEMPHIS: HENRY KURTZ, PRAKASHAN KORAMBATH
     UNIVERSITY OF ALBERTA: TOBY ZENG, MARIUSZ KLOBUKOWSKI
     UNIVERSITY OF NEW ENGLAND: MARK SPACKMAN
     MIE UNIVERSITY: HIROAKI UMEDA
     NAT. INST. OF ADVANCED INDUSTRIAL SCIENCE AND TECHNOLOGY: KAZUO KITAURA
     MICHIGAN STATE UNIVERSITY:
          KAROL KOWALSKI, MARTA WLOCH, JEFFREY GOUR, JESSE LUTZ,
          WEI LI, JUN SHEN, J. EMILIANO DEUSTUA, PIOTR PIECUCH
     UNIVERSITY OF MINNESOTA:
          YINAN SHU
     UNIVERSITY OF SILESIA: MONIKA MUSIAL, STANISLAW KUCHARSKI
     FACULTES UNIVERSITAIRES NOTRE-DAME DE LA PAIX:
          OLIVIER QUINET, BENOIT CHAMPAGNE
     UNIVERSITY OF CALIFORNIA - SANTA BARBARA: BERNARD KIRTMAN
     INSTITUTE FOR MOLECULAR SCIENCE:
          KAZUYA ISHIMURA, MICHIO KATOUDA, AND SHIGERU NAGASE
     UNIVERSITY OF NOTRE DAME: ANNA POMOGAEVA, DAN CHIPMAN
     KYUSHU UNIVERSITY:
          HARUYUKI NAKANO,
          FENG LONG GU, JACEK KORCHOWIEC, MARCIN MAKOWSKI, AND YURIKO AOKI,
          HIROTOSHI MORI AND EISAKU MIYOSHI
     PENNSYLVANIA STATE UNIVERSITY:
          TZVETELIN IORDANOV, CHET SWALINA, JONATHAN SKONE,
          SHARON HAMMES-SCHIFFER
     WASEDA UNIVERSITY:
          MASATO KOBAYASHI, TOMOKO AKAMA, TSUGUKI TOUMA,
          TAKESHI YOSHIKAWA, YASUHIRO IKABATA, JUNJI SEINO,
          YUYA NAKAJIMA, HIROMI NAKAI
     NANJING UNIVERSITY: SHUHUA LI
     UNIVERSITY OF NEBRASKA:
          PEIFENG SU, DEJUN SI, NANDUN THELLAMUREGE, YALI WANG, HUI LI
     UNIVERSITY OF ZURICH: ROBERTO PEVERATI, KIM BALDRIDGE
     N. COPERNICUS UNIVERSITY AND JACKSON STATE UNIVERSITY:
          MARIA BARYSZ
     UNIVERSITY OF COPENHAGEN: Jimmy Kromann, CASPER STEINMANN
     TOKYO INSTITUTE OF TECHNOLOGY: HIROYA NAKATA
     NAGOYA UNIVERSITY: YOSHIO NISHIMOTO, STEPHAN IRLE
     MOSCOW STATE UNIVERSITY: VLADIMIR MIRONOV
     A.N.NESMEYANOV INSTITUTE OF ORGANOELEMENT COMPOUNDS OF RUSSIAN ACADEMY OF SCIENCES:
          IGOR S. GERASIMOV

 EXECUTION OF GAMESS BEGUN Tue Nov 16 06:16:59 2021

            ECHO OF THE FIRST FEW INPUT CARDS -
 INPUT CARD>!File created by the GAMESS Input Deck Generator Plugin for Avogadro            
 INPUT CARD> $BASIS GBASIS=STO NGAUSS=3 $END                                                
 INPUT CARD> $CONTRL SCFTYP=RHF RUNTYP=SADPOINT $END                                        
 INPUT CARD> $STATPT hssend=.t. OPTTOL=0.0005 NSTEP=50 $END                                 
 INPUT CARD> $STATPT HESS=calc ihrep=5 $END                                                 
 INPUT CARD> $FORCE nvib=2 $END                                                             
 INPUT CARD> $ZMAT DLC=.t. auto=.t. nonvdw(1)=3,7,4,11 $END                                 
 INPUT CARD>!$ZMAT IFZMAT(1)=1,3,7,1,4,11 fvalue(1)=2.00,2.00 $END                          
 INPUT CARD>                                                                                
 INPUT CARD>                                                                                
 INPUT CARD> $DATA                                                                          
 INPUT CARD>Title                                                                           
 INPUT CARD>C1                                                                              
 INPUT CARD>H     1.0     3.10269737    -5.24404812    -2.64489794                          
 INPUT CARD>H     1.0     1.35330260    -5.90278435    -1.96446848                          
 INPUT CARD>B     5.0     2.16667914    -5.08415508    -1.98943436                          
 INPUT CARD>H     1.0     1.75661242    -4.00603819    -2.01942849                          
 INPUT CARD>H     1.0     4.89137793    -3.67773199    -1.75577879                          
 INPUT CARD>H     1.0     0.41279933    -4.96400738     0.30610171                          
 INPUT CARD>C     6.0     3.06240749    -5.50233126    -0.25081435                          
 INPUT CARD>H     1.0     3.10914755    -2.35722470    -0.90061182                          
 INPUT CARD>C     6.0     4.75347853    -3.82286787    -0.68831563                          
 INPUT CARD>H     1.0     5.00768805    -5.96902752    -1.14668405                          
 INPUT CARD>C     6.0     2.42100191    -4.30392838    -0.15667576                          
 INPUT CARD>C     6.0     1.02540910    -4.07520437     0.41565436                          
 INPUT CARD>H     1.0     0.53580827    -3.24336553    -0.08118417                          
 INPUT CARD>H     1.0     2.62002921    -6.44905663     0.02916575                          
 INPUT CARD>C     6.0     4.57614517    -5.33302021    -0.37756288                          
 INPUT CARD>C     6.0     3.43341756    -3.14985847    -0.23118792                          
 INPUT CARD>H     1.0     5.61569929    -3.40282583    -0.17782432                          
 INPUT CARD>H     1.0     1.11789799    -3.83933949     1.47419298                          
 INPUT CARD>H     1.0     3.53124666    -2.72583270     0.76809222                          
 INPUT CARD>H     1.0     5.04057026    -5.59652233     0.57316178                          
 INPUT CARD> $END                                                                           
    1000000 WORDS OF MEMORY AVAILABLE

     BASIS OPTIONS
     -------------
     GBASIS=STO          IGAUSS=       3      POLAR=NONE    
     NDFUNC=       0     NFFUNC=       0     DIFFSP=       F
     NPFUNC=       0      DIFFS=       F     BASNAM=        


     RUN TITLE
     ---------
 Title                                                                           

 THE POINT GROUP OF THE MOLECULE IS C1      
 THE ORDER OF THE PRINCIPAL AXIS IS     0

 ATOM      ATOMIC                      COORDINATES (BOHR)
           CHARGE         X                   Y                   Z
 H           1.0     5.8632478521       -9.9098140132       -4.9981323721
 H           1.0     2.5573710925      -11.1546449861       -3.7123071387
 B           5.0     4.0944298779       -9.6076599803       -3.7594858110
 H           1.0     3.3195161404       -7.5703144754       -3.8161664979
 H           1.0     9.2433639901       -6.9499057174       -3.3179408082
 H           1.0     0.7800776216       -9.3806137492        0.5784483563
 C           6.0     5.7871110188      -10.3978983751       -0.4739703953
 H           1.0     5.8754369249       -4.4545087745       -1.7019095611
 C           6.0     8.9827719102       -7.2241727616       -1.3007279338
 H           1.0     9.4631582465      -11.2798264260       -2.1669186490
 C           6.0     4.5750302257       -8.1332453090       -0.2960742553
 C           6.0     1.9377422243       -7.7010196033        0.7854728460
 H           1.0     1.0125308123       -6.1290721297       -0.1534158358
 H           1.0     4.9511372867      -12.1869499100        0.0551152757
 C           6.0     8.6476604513      -10.0779468839       -0.7134903863
 C           6.0     6.4882183898       -5.9523694084       -0.4368818205
 H           1.0    10.6121328875       -6.4304084026       -0.3360392388
 H           1.0     2.1125208833       -7.2552996099        2.7858207852
 H           1.0     6.6730885825       -5.1510768914        1.4514838291
 H           1.0     9.5252966133      -10.5758936879        1.0831187108

          INTERNUCLEAR DISTANCES (ANGS.)
          ------------------------------

                1 H          2 H          3 B          4 H          5 H     

   1 H       0.0000000    1.9892963 *  1.1538321 *  1.9328283 *  2.5383572 *
   2 H       1.9892963 *  0.0000000    1.1542784 *  1.9399292 *  4.1847803  
   3 B       1.1538321 *  1.1542784 *  0.0000000    1.1538589 *  3.0751592  
   4 H       1.9328283 *  1.9399292 *  1.1538589 *  0.0000000    3.1629181  
   5 H       2.5383572 *  4.1847803    3.0751592    3.1629181    0.0000000  
   6 H       4.0027957    2.6308435 *  2.8913692 *  2.8516012 *  5.0954413  
   7 C       2.4083126 *  2.4531638 *  2.0000000 *  2.6593213 *  2.9898517 *
   8 H       3.3728808    4.0970448    3.0838175    2.4082541 *  2.3772663 *
   9 C       2.9279764 *  4.1851900    3.1583677    3.2842989    1.0860747 *
  10 H       2.5296698 *  3.7453561    3.0926621    3.8967297    2.3737227 *
  11 C       2.7458666 *  2.6390219 *  2.0080931 *  1.9999999 *  3.0086559  
  12 C       3.8792142    3.0186996    2.8469160 *  2.5434368 *  4.4518335  
  13 H       4.1429795    3.3596972    3.1128226    2.4142956 *  4.6865689  
  14 H       2.9724789 *  2.4243736 *  2.4785538 *  3.3031146    4.0031603  
  15 C       2.7055079 *  3.6372537    2.9095687 *  3.5222676    2.1768854 *
  16 C       3.2126317    3.8613133    2.9047479 *  2.5966370 *  2.1745520 *
  17 H       3.9738810    5.2545138    4.2431756    4.3183240    1.7578837 *
  18 H       4.7832567    4.0171648    3.8270383    3.5554375    4.9697068  
  19 H       4.2630465    4.7226423    3.8765554    3.5438009    3.0209261  
  20 H       3.7729959    4.4865696    3.8844136    4.4761080    3.0212545  

                6 H          7 C          8 H          9 C         10 H     

   1 H       4.0027957    2.4083126 *  3.3728808    2.9279764 *  2.5296698 *
   2 H       2.6308435 *  2.4531638 *  4.0970448    4.1851900    3.7453561  
   3 B       2.8913692 *  2.0000000 *  3.0838175    3.1583677    3.0926621  
   4 H       2.8516012 *  2.6593213 *  2.4082541 *  3.2842989    3.8967297  
   5 H       5.0954413    2.9898517 *  2.3772663 *  1.0860747 *  2.3737227 *
   6 H       0.0000000    2.7605020 *  3.9397674    4.5970165    4.9227690  
   7 C       2.7605020 *  0.0000000    3.2118712    2.4231644 *  2.1919180 *
   8 H       3.9397674    3.2118712    0.0000000    2.2129175 *  4.0878022  
   9 C       4.5970165    2.4231644 *  2.2129175 *  0.0000000    2.2092364 *
  10 H       4.9227690    2.1919180 *  4.0878022    2.2092364 *  0.0000000  
  11 C       2.1639651 *  1.3625097 *  2.1946846 *  2.4401859 *  3.2316585  
  12 C       1.0850177 *  2.5749241 *  3.0043263    3.8962707    4.6782489  
  13 H       1.7679734 *  3.3934355    2.8423199 *  4.3003691    5.3443645  
  14 H       2.6746829 *  1.0818393 *  4.2245487    3.4587936    2.7044344 *
  15 C       4.2352115    1.5284414 *  3.3587231    1.5519583 *  1.0873279 *
  16 C       3.5642602    2.3816301 *  1.0869902 *  1.5506348 *  3.3562144  
  17 H       5.4535897    3.3064406    2.8104279 *  1.0864904 *  2.8095832 *
  18 H       1.7681853 *  3.0858239    3.4353219    4.2301490    5.1512168  
  19 H       3.8662094    2.9944824 *  1.7602877 *  2.1950993 *  4.0453133  
  20 H       4.6784250    2.1449794 *  4.0491297    2.1953581 *  1.7600315 *

               11 C         12 C         13 H         14 H         15 C     

   1 H       2.7458666 *  3.8792142    4.1429795    2.9724789 *  2.7055079 *
   2 H       2.6390219 *  3.0186996    3.3596972    2.4243736 *  3.6372537  
   3 B       2.0080931 *  2.8469160 *  3.1128226    2.4785538 *  2.9095687 *
   4 H       1.9999999 *  2.5434368 *  2.4142956 *  3.3031146    3.5222676  
   5 H       3.0086559    4.4518335    4.6865689    4.0031603    2.1768854 *
   6 H       2.1639651 *  1.0850177 *  1.7679734 *  2.6746829 *  4.2352115  
   7 C       1.3625097 *  2.5749241 *  3.3934355    1.0818393 *  1.5284414 *
   8 H       2.1946846 *  3.0043263    2.8423199 *  4.2245487    3.3587231  
   9 C       2.4401859 *  3.8962707    4.3003691    3.4587936    1.5519583 *
  10 H       3.2316585    4.6782489    5.3443645    2.7044344 *  1.0873279 *
  11 C       0.0000000    1.5256329 *  2.1643585 *  2.1623423 *  2.3984294 *
  12 C       1.5256329 *  0.0000000    1.0855935 *  2.8857168 *  3.8495481  
  13 H       2.1643585 *  1.0855935 *  0.0000000    3.8252594    4.5583790  
  14 H       2.1623423 *  2.8857168 *  3.8252594    0.0000000    2.2885268 *
  15 C       2.3984294 *  3.8495481    4.5583790    2.2885268 *  0.0000000  
  16 C       1.5370149 *  2.6595441 *  2.9029957 *  3.4079456    2.4684909 *
  17 H       3.3194163    4.6770796    5.0833119    4.2774299    2.2014129 *
  18 H       2.1386106 *  1.0884349 *  1.7644295 *  3.3399290    4.1975654  
  19 H       2.1396788 *  2.8677933 *  3.1562259    3.9036811    3.0334412  
  20 H       3.0109135    4.2965959    5.1242947    2.6233119 *  1.0904134 *

               16 C         17 H         18 H         19 H         20 H     

   1 H       3.2126317    3.9738810    4.7832567    4.2630465    3.7729959  
   2 H       3.8613133    5.2545138    4.0171648    4.7226423    4.4865696  
   3 B       2.9047479 *  4.2431756    3.8270383    3.8765554    3.8844136  
   4 H       2.5966370 *  4.3183240    3.5554375    3.5438009    4.4761080  
   5 H       2.1745520 *  1.7578837 *  4.9697068    3.0209261    3.0212545  
   6 H       3.5642602    5.4535897    1.7681853 *  3.8662094    4.6784250  
   7 C       2.3816301 *  3.3064406    3.0858239    2.9944824 *  2.1449794 *
   8 H       1.0869902 *  2.8104279 *  3.4353219    1.7602877 *  4.0491297  
   9 C       1.5506348 *  1.0864904 *  4.2301490    2.1950993 *  2.1953581 *
  10 H       3.3562144    2.8095832 *  5.1512168    4.0453133    1.7600315 *
  11 C       1.5370149 *  3.3194163    2.1386106 *  2.1396788 *  3.0109135  
  12 C       2.6595441 *  4.6770796    1.0884349 *  2.8677933 *  4.2965959  
  13 H       2.9029957 *  5.0833119    1.7644295 *  3.1562259    5.1242947  
  14 H       3.4079456    4.2774299    3.3399290    3.9036811    2.6233119 *
  15 C       2.4684909 *  2.2014129 *  4.1975654    3.0334412    1.0904134 *
  16 C       0.0000000    2.1975427 *  2.9572519 *  1.0899216 *  3.0358001  
  17 H       2.1975427 *  0.0000000    4.8114366    2.3870527 *  2.3889449 *
  18 H       2.9572519 *  4.8114366    0.0000000    2.7500414 *  4.3916861  
  19 H       1.0899216 *  2.3870527 *  2.7500414 *  0.0000000    3.2491406  
  20 H       3.0358001    2.3889449 *  4.3916861    3.2491406    0.0000000  

  * ... LESS THAN  3.000


     ATOMIC BASIS SET
     ----------------
 THE CONTRACTED PRIMITIVE FUNCTIONS HAVE BEEN UNNORMALIZED
 THE CONTRACTED BASIS FUNCTIONS ARE NOW NORMALIZED TO UNITY

  SHELL TYPE  PRIMITIVE        EXPONENT          CONTRACTION COEFFICIENT(S)

 H         

      1   S       1             3.4252509    0.154328967295
      1   S       2             0.6239137    0.535328142282
      1   S       3             0.1688554    0.444634542185

 H         

      2   S       4             3.4252509    0.154328967295
      2   S       5             0.6239137    0.535328142282
      2   S       6             0.1688554    0.444634542185

 B         

      3   S       7            48.7911132    0.154328967295
      3   S       8             8.8873622    0.535328142282
      3   S       9             2.4052670    0.444634542185

      4   L      10             2.2369561   -0.099967229187    0.155916274999
      4   L      11             0.5198205    0.399512826089    0.607683718598
      4   L      12             0.1690618    0.700115468880    0.391957393099

 H         

      5   S      13             3.4252509    0.154328967295
      5   S      14             0.6239137    0.535328142282
      5   S      15             0.1688554    0.444634542185

 H         

      6   S      16             3.4252509    0.154328967295
      6   S      17             0.6239137    0.535328142282
      6   S      18             0.1688554    0.444634542185

 H         

      7   S      19             3.4252509    0.154328967295
      7   S      20             0.6239137    0.535328142282
      7   S      21             0.1688554    0.444634542185

 C         

      8   S      22            71.6168373    0.154328967295
      8   S      23            13.0450963    0.535328142282
      8   S      24             3.5305122    0.444634542185

      9   L      25             2.9412494   -0.099967229187    0.155916274999
      9   L      26             0.6834831    0.399512826089    0.607683718598
      9   L      27             0.2222899    0.700115468880    0.391957393099

 H         

     10   S      28             3.4252509    0.154328967295
     10   S      29             0.6239137    0.535328142282
     10   S      30             0.1688554    0.444634542185

 C         

     11   S      31            71.6168373    0.154328967295
     11   S      32            13.0450963    0.535328142282
     11   S      33             3.5305122    0.444634542185

     12   L      34             2.9412494   -0.099967229187    0.155916274999
     12   L      35             0.6834831    0.399512826089    0.607683718598
     12   L      36             0.2222899    0.700115468880    0.391957393099

 H         

     13   S      37             3.4252509    0.154328967295
     13   S      38             0.6239137    0.535328142282
     13   S      39             0.1688554    0.444634542185

 C         

     14   S      40            71.6168373    0.154328967295
     14   S      41            13.0450963    0.535328142282
     14   S      42             3.5305122    0.444634542185

     15   L      43             2.9412494   -0.099967229187    0.155916274999
     15   L      44             0.6834831    0.399512826089    0.607683718598
     15   L      45             0.2222899    0.700115468880    0.391957393099

 C         

     16   S      46            71.6168373    0.154328967295
     16   S      47            13.0450963    0.535328142282
     16   S      48             3.5305122    0.444634542185

     17   L      49             2.9412494   -0.099967229187    0.155916274999
     17   L      50             0.6834831    0.399512826089    0.607683718598
     17   L      51             0.2222899    0.700115468880    0.391957393099

 H         

     18   S      52             3.4252509    0.154328967295
     18   S      53             0.6239137    0.535328142282
     18   S      54             0.1688554    0.444634542185

 H         

     19   S      55             3.4252509    0.154328967295
     19   S      56             0.6239137    0.535328142282
     19   S      57             0.1688554    0.444634542185

 C         

     20   S      58            71.6168373    0.154328967295
     20   S      59            13.0450963    0.535328142282
     20   S      60             3.5305122    0.444634542185

     21   L      61             2.9412494   -0.099967229187    0.155916274999
     21   L      62             0.6834831    0.399512826089    0.607683718598
     21   L      63             0.2222899    0.700115468880    0.391957393099

 C         

     22   S      64            71.6168373    0.154328967295
     22   S      65            13.0450963    0.535328142282
     22   S      66             3.5305122    0.444634542185

     23   L      67             2.9412494   -0.099967229187    0.155916274999
     23   L      68             0.6834831    0.399512826089    0.607683718598
     23   L      69             0.2222899    0.700115468880    0.391957393099

 H         

     24   S      70             3.4252509    0.154328967295
     24   S      71             0.6239137    0.535328142282
     24   S      72             0.1688554    0.444634542185

 H         

     25   S      73             3.4252509    0.154328967295
     25   S      74             0.6239137    0.535328142282
     25   S      75             0.1688554    0.444634542185

 H         

     26   S      76             3.4252509    0.154328967295
     26   S      77             0.6239137    0.535328142282
     26   S      78             0.1688554    0.444634542185

 H         

     27   S      79             3.4252509    0.154328967295
     27   S      80             0.6239137    0.535328142282
     27   S      81             0.1688554    0.444634542185

 TOTAL NUMBER OF BASIS SET SHELLS             =   27
 NUMBER OF CARTESIAN GAUSSIAN BASIS FUNCTIONS =   48
 NUMBER OF ELECTRONS                          =   54
 CHARGE OF MOLECULE                           =    0
 SPIN MULTIPLICITY                            =    1
 NUMBER OF OCCUPIED ORBITALS (ALPHA)          =   27
 NUMBER OF OCCUPIED ORBITALS (BETA )          =   27
 TOTAL NUMBER OF ATOMS                        =   20
 THE NUCLEAR REPULSION ENERGY IS      309.1383038378

     $CONTRL OPTIONS
     ---------------
 SCFTYP=RHF          RUNTYP=SADPOINT     EXETYP=RUN     
 MPLEVL=       0     CITYP =NONE         CCTYP =NONE         VBTYP =NONE    
 DFTTYP=NONE         TDDFT =NONE    
 MULT  =       1     ICHARG=       0     NZVAR =       0     COORD =UNIQUE  
 PP    =NONE         RELWFN=NONE         LOCAL =NONE         NUMGRD=       F
 ISPHER=      -1     NOSYM =       0     MAXIT =      30     UNITS =ANGS    
 PLTORB=       F     MOLPLT=       F     AIMPAC=       F     FRIEND=        
 NPRINT=       7     IREST =       0     GEOM  =INPUT   
 NORMF =       0     NORMP =       0     ITOL  =      20     ICUT  =       9
 INTTYP=BEST         GRDTYP=BEST         QMTTOL= 1.0E-06

     $SYSTEM OPTIONS
     ---------------
  REPLICATED MEMORY=     1000000 WORDS (ON EVERY NODE).
 DISTRIBUTED MEMDDI=           0 MILLION WORDS IN AGGREGATE,
 MEMDDI DISTRIBUTED OVER   1 PROCESSORS IS           0 WORDS/PROCESSOR.
 TOTAL MEMORY REQUESTED ON EACH PROCESSOR=     1000000 WORDS.
 TIMLIM=      525600.00 MINUTES, OR     365.0 DAYS.
 PARALL= F  BALTYP=  DLB     KDIAG=    0  COREFL= F
 MXSEQ2=     300 MXSEQ3=     150  mem10=         0

          ----------------
          PROPERTIES INPUT
          ----------------

     MOMENTS            FIELD           POTENTIAL          DENSITY
 IEMOM =       1   IEFLD =       0   IEPOT =       0   IEDEN =       0
 WHERE =COMASS     WHERE =NUCLEI     WHERE =NUCLEI     WHERE =NUCLEI  
 OUTPUT=BOTH       OUTPUT=BOTH       OUTPUT=BOTH       OUTPUT=BOTH    
 IEMINT=       0   IEFINT=       0                     IEDINT=       0
                                                       MORB  =       0
          EXTRAPOLATION IN EFFECT
          SOSCF IN EFFECT
 ORBITAL PRINTING OPTION: NPREO=     1    48     2     1

     -------------------------------
     INTEGRAL TRANSFORMATION OPTIONS
     -------------------------------
     NWORD  =            0
     CUTOFF = 1.0E-09     MPTRAN =       0
     DIRTRF =       F     AOINTS =DUP     

          ----------------------
          INTEGRAL INPUT OPTIONS
          ----------------------
 NOPK  =       1 NORDER=       0 SCHWRZ=       T

     ------------------------------------------
     THE POINT GROUP IS C1 , NAXIS= 0, ORDER= 1
     ------------------------------------------

     DIMENSIONS OF THE SYMMETRY SUBSPACES ARE
 A   =   48

 ..... DONE SETTING UP THE RUN .....
 STEP CPU TIME =     0.02 TOTAL CPU TIME =          0.0 (      0.0 MIN)
 TOTAL WALL CLOCK TIME=          0.0 SECONDS, CPU UTILIZATION IS    50.00%


          -----------------------------
          STATIONARY POINT LOCATION RUN
          -----------------------------

 OBTAINING INITIAL HESSIAN, HESS=CALC    

     ---------------------------------
     HESSIAN MATRIX CONTROL PARAMETERS
     ---------------------------------
     METHOD=ANALYTIC   NVIB  =       2   VIBSIZ= 0.01000
     RDHESS=       F   PURIFY=       F   PRTIFC=       F
     VIBANL=       F   DECOMP=       F   PROJCT=       F
     SCLFAC= 1.00000   PRTSCN=       F   NPRT  =       0
     PULCOR=       F   NPUN  =       0   REDOVB=       T
     HSSTYP=GENERAL 
 Old integral subroutine is used

     ------------------------------
     CPHF RESPONSE SOLUTION OPTIONS
     ------------------------------
     POLAR  =       F     NWORD  =       0
     CPHF   =AO      

          ********************
          1 ELECTRON INTEGRALS
          ********************
 ...... END OF ONE-ELECTRON INTEGRALS ......
 STEP CPU TIME =     0.02 TOTAL CPU TIME =          0.0 (      0.0 MIN)
 TOTAL WALL CLOCK TIME=          0.1 SECONDS, CPU UTILIZATION IS    66.67%

          -------------
          GUESS OPTIONS
          -------------
          GUESS =HUCKEL            NORB  =       0          NORDER=       0
          MIX   =       F          PRTMO =       F          PUNMO =       F
          TOLZ  = 1.0E-08          TOLE  = 1.0E-05
          SYMDEN=       F          PURIFY=       F

 INITIAL GUESS ORBITALS GENERATED BY HUCKEL   ROUTINE.
 HUCKEL GUESS REQUIRES     39252 WORDS.

 SYMMETRIES FOR INITIAL GUESS ORBITALS FOLLOW.   BOTH SET(S).
    27 ORBITALS ARE OCCUPIED (    7 CORE ORBITALS).
     8=A        9=A       10=A       11=A       12=A       13=A       14=A   
    15=A       16=A       17=A       18=A       19=A       20=A       21=A   
    22=A       23=A       24=A       25=A       26=A       27=A       28=A   
    29=A       30=A       31=A       32=A       33=A       34=A       35=A   
    36=A       37=A   
 ...... END OF INITIAL ORBITAL SELECTION ......
 STEP CPU TIME =     0.02 TOTAL CPU TIME =          0.1 (      0.0 MIN)
 TOTAL WALL CLOCK TIME=          0.1 SECONDS, CPU UTILIZATION IS    85.71%

                    ----------------------
                    AO INTEGRAL TECHNOLOGY
                    ----------------------
     S,P,L SHELL ROTATED AXIS INTEGRALS, REPROGRAMMED BY
        KAZUYA ISHIMURA (IMS) AND JOSE SIERRA (SYNSTAR).
     S,P,D,L SHELL ROTATED AXIS INTEGRALS PROGRAMMED BY
        KAZUYA ISHIMURA (INSTITUTE FOR MOLECULAR SCIENCE).
     S,P,D,F,G SHELL TO TOTAL QUARTET ANGULAR MOMENTUM SUM 5,
        ERIC PROGRAM BY GRAHAM FLETCHER (ELORET AND NASA ADVANCED
        SUPERCOMPUTING DIVISION, AMES RESEARCH CENTER).
     S,P,D,F,G,L SHELL GENERAL RYS QUADRATURE PROGRAMMED BY
        MICHEL DUPUIS (PACIFIC NORTHWEST NATIONAL LABORATORY).

          --------------------
          2 ELECTRON INTEGRALS
          --------------------

 THE -PK- OPTION IS OFF, THE INTEGRALS ARE NOT IN SUPERMATRIX FORM.
 STORING   15000 INTEGRALS/RECORD ON DISK, USING 12 BYTES/INTEGRAL.
 TWO ELECTRON INTEGRAL EVALUATION REQUIRES   89734 WORDS OF MEMORY.
 SCHWARZ INEQUALITY OVERHEAD:      1165 INTEGRALS, T=        0.00
 II,JST,KST,LST =  1  1  1  1 NREC =         1 INTLOC =    1
 II,JST,KST,LST =  2  1  1  1 NREC =         1 INTLOC =    2
 II,JST,KST,LST =  3  1  1  1 NREC =         1 INTLOC =    7
 II,JST,KST,LST =  4  1  1  1 NREC =         1 INTLOC =   22
 II,JST,KST,LST =  5  1  1  1 NREC =         1 INTLOC =  320
 II,JST,KST,LST =  6  1  1  1 NREC =         1 INTLOC =  580
 II,JST,KST,LST =  7  1  1  1 NREC =         1 INTLOC =  949
 II,JST,KST,LST =  8  1  1  1 NREC =         1 INTLOC = 1454
 II,JST,KST,LST =  9  1  1  1 NREC =         1 INTLOC = 2059
 II,JST,KST,LST = 10  1  1  1 NREC =         1 INTLOC = 6967
 II,JST,KST,LST = 11  1  1  1 NREC =         1 INTLOC = 9007
 II,JST,KST,LST = 12  1  1  1 NREC =         1 INTLOC =11094
 II,JST,KST,LST = 13  1  1  1 NREC =         2 INTLOC =10754
 II,JST,KST,LST = 14  1  1  1 NREC =         3 INTLOC = 1012
 II,JST,KST,LST = 15  1  1  1 NREC =         3 INTLOC = 6429
 II,JST,KST,LST = 16  1  1  1 NREC =         5 INTLOC = 9215
 II,JST,KST,LST = 17  1  1  1 NREC =         6 INTLOC = 2940
 II,JST,KST,LST = 18  1  1  1 NREC =         9 INTLOC =13041
 II,JST,KST,LST = 19  1  1  1 NREC =        11 INTLOC =  461
 II,JST,KST,LST = 20  1  1  1 NREC =        12 INTLOC = 4732
 II,JST,KST,LST = 21  1  1  1 NREC =        13 INTLOC = 7103
 II,JST,KST,LST = 22  1  1  1 NREC =        20 INTLOC = 4465
 II,JST,KST,LST = 23  1  1  1 NREC =        22 INTLOC = 1014
 II,JST,KST,LST = 24  1  1  1 NREC =        32 INTLOC = 1035
 II,JST,KST,LST = 25  1  1  1 NREC =        34 INTLOC =14604
 II,JST,KST,LST = 26  1  1  1 NREC =        38 INTLOC = 1422
 II,JST,KST,LST = 27  1  1  1 NREC =        41 INTLOC = 7153
 SCHWARZ INEQUALITY TEST SKIPPED        7563 INTEGRAL BLOCKS.
 TOTAL NUMBER OF NONZERO TWO-ELECTRON INTEGRALS =              660693
         45 INTEGRAL RECORDS WERE STORED ON DISK FILE  8.
  ...... END OF TWO-ELECTRON INTEGRALS .....
 STEP CPU TIME =     0.19 TOTAL CPU TIME =          0.2 (      0.0 MIN)
 TOTAL WALL CLOCK TIME=          0.3 SECONDS, CPU UTILIZATION IS    92.59%

          --------------------------
                 RHF SCF CALCULATION
          --------------------------

     NUCLEAR ENERGY =       309.1383038378
     MAXIT =   30     NPUNCH=    2
     EXTRAP=T  DAMP=F  SHIFT=F  RSTRCT=F  DIIS=F  DEM=F  SOSCF=T
     DENSITY MATRIX CONV=  1.00E-05
     SOSCF WILL OPTIMIZE     567 ORBITAL ROTATIONS, SOGTOL=   0.250
     MEMORY REQUIRED FOR RHF ITERS=     49068 WORDS.

 ITER EX DEM     TOTAL ENERGY        E CHANGE  DENSITY CHANGE     ORB. GRAD
   1  0  0     -255.9799170616  -255.9799170616   0.309410550   0.000000000
          ---------------START SECOND ORDER SCF---------------
   2  1  0     -256.3258161520    -0.3458990904   0.072447360   0.023048073
   3  2  0     -256.3394923458    -0.0136761937   0.034680479   0.006169156
   4  3  0     -256.3407103518    -0.0012180061   0.006822020   0.001435462
   5  4  0     -256.3407482519    -0.0000379000   0.001696607   0.000632315
   6  5  0     -256.3407535097    -0.0000052579   0.000312437   0.000100635
   7  6  0     -256.3407538439    -0.0000003342   0.000087984   0.000030237
   8  7  0     -256.3407538647    -0.0000000208   0.000025108   0.000005353
   9  8  0     -256.3407538662    -0.0000000014   0.000010784   0.000001876
  10  9  0     -256.3407538663    -0.0000000002   0.000002540   0.000000573
  11 10  0     -256.3407538663    -0.0000000000   0.000000520   0.000000135

          -----------------
          DENSITY CONVERGED
          -----------------
     TIME TO FORM FOCK OPERATORS=       0.1 SECONDS (       0.0 SEC/ITER)
     TIME TO SOLVE SCF EQUATIONS=       0.0 SECONDS (       0.0 SEC/ITER)

 FINAL RHF ENERGY IS     -256.3407538663 AFTER  11 ITERATIONS

          ------------
          EIGENVECTORS
          ------------

                      1          2          3          4          5
                  -11.1073   -11.0717   -11.0697   -11.0687   -11.0642
                     A          A          A          A          A   
    1  H  1  S    0.000006  -0.000092   0.000027   0.000434  -0.000141
    2  H  2  S    0.000165   0.000107  -0.000094   0.000458  -0.000037
    3  B  3  S    0.000360   0.000021   0.000003   0.000429   0.000022
    4  B  3  S   -0.002463  -0.000001   0.000103  -0.003085  -0.000029
    5  B  3  X   -0.000096   0.000195  -0.000068  -0.001491  -0.000090
    6  B  3  Y   -0.001293   0.000017  -0.000134   0.001161  -0.000024
    7  B  3  Z   -0.002440  -0.000089   0.000080  -0.002113  -0.000102
    8  H  4  S   -0.000443  -0.000081  -0.000038   0.000126   0.000021
    9  H  5  S    0.000039   0.000006   0.000152   0.000046   0.000224
   10  H  6  S    0.000082  -0.006964  -0.000110  -0.000111  -0.000027
   11  C  7  S    0.009283  -0.002546  -0.037886   0.990871   0.030178
   12  C  7  S   -0.006761   0.000023  -0.001217   0.036619  -0.004724
   13  C  7  X    0.002046  -0.000146   0.000041  -0.000883  -0.004311
   14  C  7  Y   -0.003948  -0.000100  -0.000087   0.002094  -0.000366
   15  C  7  Z   -0.000925   0.000075  -0.000012  -0.000165   0.000326
   16  H  8  S    0.000016   0.000067  -0.006938  -0.000321  -0.000137
   17  C  9  S   -0.000655  -0.000309  -0.011092  -0.003209  -0.019561
   18  C  9  S    0.000119  -0.000032  -0.005930  -0.000063  -0.006322
   19  C  9  X    0.000058   0.000041   0.003463   0.000305   0.000407
   20  C  9  Y    0.000126   0.000027  -0.001890  -0.000187   0.004021
   21  C  9  Z    0.000061   0.000010  -0.001216   0.000027  -0.000831
   22  H 10  S   -0.000045   0.000003  -0.000051   0.000186  -0.006933
   23  C 11  S    0.992126   0.004307   0.004591  -0.008643   0.000623
   24  C 11  S    0.035660  -0.005581  -0.005360  -0.007734  -0.000060
   25  C 11  X    0.001248   0.004031  -0.002671  -0.002316  -0.000049
   26  C 11  Y   -0.001727  -0.000632  -0.003436   0.003925   0.000078
   27  C 11  Z   -0.000429  -0.001684   0.000165  -0.000299  -0.000032
   28  C 12  S   -0.003352   0.991906   0.006694   0.002833   0.000318
   29  C 12  S   -0.005488   0.037897   0.000380   0.000395  -0.000010
   30  C 12  X   -0.003683   0.000055   0.000031   0.000079  -0.000018
   31  C 12  Y    0.000766   0.000045   0.000037  -0.000035   0.000028
   32  C 12  Z    0.001434   0.000153  -0.000018  -0.000066   0.000018
   33  H 13  S   -0.000031  -0.006964  -0.000096  -0.000081  -0.000007
   34  H 14  S    0.000060  -0.000072   0.000193  -0.006661  -0.000107
   35  C 15  S   -0.000802  -0.000201  -0.005573  -0.029498   0.991305
   36  C 15  S    0.000048  -0.000003   0.000156  -0.006602   0.037211
   37  C 15  X    0.000059   0.000005  -0.000047   0.004113  -0.000136
   38  C 15  Y   -0.000133  -0.000018   0.000003   0.000410  -0.000052
   39  C 15  Z   -0.000031   0.000011  -0.000119  -0.000367   0.000271
   40  C 16  S   -0.003263  -0.006797   0.991123   0.037746   0.006508
   41  C 16  S   -0.005596  -0.000152   0.037273   0.001586   0.000441
   42  C 16  X    0.002665  -0.000016  -0.000266  -0.000137   0.000102
   43  C 16  Y    0.003125  -0.000011  -0.000134   0.000104   0.000080
   44  C 16  Z   -0.000210   0.000027   0.000349   0.000009  -0.000136
   45  H 17  S   -0.000074  -0.000008   0.000198  -0.000064   0.000259
   46  H 18  S   -0.000100  -0.007007  -0.000020  -0.000021  -0.000002
   47  H 19  S   -0.000082   0.000018  -0.007026  -0.000275  -0.000034
   48  H 20  S   -0.000003   0.000000   0.000057   0.000112  -0.007011

                      6          7          8          9         10
                  -11.0561    -7.3088    -1.1267    -0.9957    -0.9466
                     A          A          A          A          A   
    1  H  1  S    0.000058  -0.007010   0.011641   0.000562  -0.014040
    2  H  2  S   -0.000044  -0.007059   0.009416   0.010425  -0.013467
    3  B  3  S    0.000019   0.989979  -0.023745  -0.015040   0.018120
    4  B  3  S   -0.000094   0.041913   0.035376   0.025400  -0.031846
    5  B  3  X   -0.000135   0.000183   0.006166  -0.005274  -0.009337
    6  B  3  Y   -0.000085   0.000777   0.005060   0.006793   0.010350
    7  B  3  Z   -0.000031   0.001355   0.018109   0.014543  -0.015630
    8  H  4  S    0.000057  -0.007145   0.018308   0.019540   0.000174
    9  H  5  S   -0.007014  -0.000187   0.037578  -0.078900   0.057823
   10  H  6  S   -0.000012  -0.000297   0.026963   0.097288   0.022728
   11  C  7  S    0.003461   0.000526  -0.123464  -0.017082   0.133479
   12  C  7  S    0.000134  -0.003186   0.313841   0.048167  -0.375915
   13  C  7  X   -0.000094   0.001066  -0.005498  -0.101898  -0.017839
   14  C  7  Y   -0.000173  -0.000014   0.090489   0.034935  -0.006291
   15  C  7  Z    0.000070   0.002802  -0.002301   0.012722   0.001892
   16  H  8  S    0.000045  -0.000010   0.043934  -0.017183   0.123253
   17  C  9  S    0.991718   0.000030  -0.079561   0.118657  -0.075421
   18  C  9  S    0.036990   0.000004   0.205154  -0.329557   0.215214
   19  C  9  X    0.000091   0.000226  -0.041374   0.009839  -0.041410
   20  C  9  Y    0.000144   0.000103  -0.019531   0.032510   0.086465
   21  C  9  Z   -0.000202   0.000131   0.016408  -0.010982   0.009313
   22  H 10  S   -0.000013  -0.000082   0.037344  -0.068774  -0.069423
   23  C 11  S    0.000759   0.000457  -0.141000  -0.099209   0.000535
   24  C 11  S    0.000083  -0.002833   0.366605   0.278366   0.002159
   25  C 11  X   -0.000135   0.000612   0.059980  -0.091933  -0.020126
   26  C 11  Y    0.000045   0.000704  -0.041431  -0.024712   0.173256
   27  C 11  Z    0.000072   0.002446  -0.008917   0.028436   0.017035
   28  C 12  S    0.000415   0.000048  -0.054088  -0.140623  -0.042994
   29  C 12  S   -0.000065   0.000052   0.144827   0.391983   0.122177
   30  C 12  X   -0.000071   0.000029   0.041477   0.040362   0.003940
   31  C 12  Y   -0.000021   0.000111  -0.006948  -0.009325   0.021271
   32  C 12  Z    0.000018   0.000294  -0.015031  -0.013298   0.002073
   33  H 13  S   -0.000015   0.000053   0.025656   0.093970   0.041649
   34  H 14  S   -0.000138  -0.000148   0.054535   0.019002  -0.109213
   35  C 15  S    0.020405   0.000032  -0.085672   0.103574   0.087472
   36  C 15  S   -0.004832   0.000073   0.222243  -0.287832  -0.251139
   37  C 15  X   -0.000553   0.000070  -0.045606  -0.013120   0.060807
   38  C 15  Y   -0.004034  -0.000083   0.029604  -0.047427   0.058803
   39  C 15  Z    0.000853   0.000121   0.002146   0.006505  -0.014386
   40  C 16  S    0.012342   0.000044  -0.096641   0.031706  -0.148631
   41  C 16  S   -0.005157  -0.000016   0.252251  -0.086108   0.427679
   42  C 16  X   -0.003595  -0.000015  -0.008882  -0.082135   0.016682
   43  C 16  Y    0.001739   0.000124  -0.058133   0.001981   0.015124
   44  C 16  Z    0.001245   0.000204  -0.001889   0.018607  -0.000029
   45  H 17  S   -0.006993  -0.000094   0.035472  -0.082080   0.063493
   46  H 18  S   -0.000002  -0.000149   0.027773   0.098329   0.038792
   47  H 19  S    0.000002  -0.000130   0.048492  -0.018145   0.125004
   48  H 20  S   -0.000057  -0.000115   0.041302  -0.071651  -0.070217

                     11         12         13         14         15
                   -0.8935    -0.7786    -0.7002    -0.6699    -0.6305
                     A          A          A          A          A   
    1  H  1  S   -0.009485   0.022332   0.016866   0.168256  -0.031049
    2  H  2  S   -0.009346   0.031299  -0.005251   0.153941   0.033771
    3  B  3  S    0.019502  -0.032760  -0.024930  -0.149932  -0.008238
    4  B  3  S   -0.035608   0.067739   0.054535   0.341145   0.017327
    5  B  3  X   -0.007214   0.000536  -0.002184   0.002022  -0.051238
    6  B  3  Y   -0.004083  -0.000157   0.054972   0.028484   0.003398
    7  B  3  Z   -0.017036   0.022070   0.007466   0.011511   0.015501
    8  H  4  S   -0.015310   0.024692   0.074563   0.205651   0.033852
    9  H  5  S    0.065410   0.186311  -0.004010   0.087254  -0.015222
   10  H  6  S    0.136021   0.022926  -0.087439   0.022147  -0.090093
   11  C  7  S    0.058421  -0.029194   0.100814   0.013169   0.028074
   12  C  7  S   -0.163012   0.083887  -0.333385  -0.036303  -0.093823
   13  C  7  X    0.087452  -0.166731   0.035241  -0.015465  -0.200967
   14  C  7  Y   -0.069574   0.052518   0.287786  -0.120689  -0.118889
   15  C  7  Z   -0.000657  -0.010459  -0.068732  -0.160403   0.082672
   16  H  8  S   -0.064550  -0.112900  -0.119505   0.173100   0.015822
   17  C  9  S   -0.072255  -0.129067   0.005214   0.013182  -0.005365
   18  C  9  S    0.212221   0.401671  -0.016015  -0.043292   0.013972
   19  C  9  X    0.063103   0.089603   0.000090  -0.016266   0.243865
   20  C  9  Y   -0.065963   0.072018  -0.143005   0.011647   0.054863
   21  C  9  Z   -0.007935  -0.069141  -0.021385  -0.139759   0.068067
   22  H 10  S    0.099229  -0.135150   0.054767   0.138251   0.090409
   23  C 11  S    0.061775  -0.018721  -0.104606   0.031213  -0.062066
   24  C 11  S   -0.182356   0.053165   0.348088  -0.098180   0.222299
   25  C 11  X   -0.162115  -0.028167   0.025127  -0.104617  -0.244558
   26  C 11  Y    0.044922  -0.179797   0.080242   0.059083   0.009807
   27  C 11  Z    0.054351  -0.035020  -0.048698  -0.181755   0.088945
   28  C 12  S   -0.149775   0.005920   0.025201   0.002500   0.029818
   29  C 12  S    0.436273  -0.017986  -0.078357  -0.009224  -0.099482
   30  C 12  X   -0.049773   0.000917   0.119273  -0.059425   0.256798
   31  C 12  Y    0.010280  -0.053120   0.021905   0.021022  -0.074570
   32  C 12  Z    0.025501  -0.016924  -0.074608  -0.115207  -0.113731
   33  H 13  S    0.137559  -0.027937  -0.031887   0.070198  -0.129316
   34  H 14  S   -0.040601   0.042755  -0.322257   0.034556   0.102786
   35  C 15  S   -0.101370   0.102066  -0.035123  -0.012972  -0.011486
   36  C 15  S    0.298186  -0.316888   0.111898   0.042547   0.036988
   37  C 15  X    0.067895  -0.012477   0.095645   0.036084   0.256496
   38  C 15  Y    0.018422   0.139607   0.077625  -0.102067  -0.099950
   39  C 15  Z   -0.007895  -0.052825  -0.038128  -0.139867   0.080382
   40  C 16  S    0.074101   0.082917   0.050890  -0.016578   0.009792
   41  C 16  S   -0.217214  -0.258681  -0.164451   0.054344  -0.032399
   42  C 16  X    0.055785   0.123646  -0.120446  -0.060117  -0.070449
   43  C 16  Y    0.010904  -0.071190  -0.193258   0.126530   0.124834
   44  C 16  Z   -0.011081  -0.073755  -0.028724  -0.161143   0.113598
   45  H 17  S    0.074639   0.177049  -0.050767  -0.070176   0.196061
   46  H 18  S    0.141305  -0.025660  -0.070684  -0.087023  -0.120469
   47  H 19  S   -0.063203  -0.140113  -0.141932  -0.056504   0.101734
   48  H 20  S    0.098229  -0.158915   0.032114  -0.042196   0.174876

                     16         17         18         19         20
                   -0.5988    -0.5665    -0.5609    -0.5366    -0.5041
                     A          A          A          A          A   
    1  H  1  S    0.115788   0.054917   0.162420   0.058787  -0.032406
    2  H  2  S    0.158279   0.030696   0.109455   0.051856  -0.081956
    3  B  3  S   -0.114114  -0.031402  -0.075612  -0.045246   0.022415
    4  B  3  S    0.266893   0.074964   0.181565   0.107478  -0.055641
    5  B  3  X   -0.033764   0.008362   0.037487  -0.007914   0.046788
    6  B  3  Y    0.004223   0.004246  -0.053414   0.026150   0.011425
    7  B  3  Z   -0.010852  -0.025986  -0.046340  -0.033407   0.045968
    8  H  4  S    0.148439   0.058830   0.017978   0.087698  -0.051227
    9  H  5  S   -0.248143  -0.007425   0.018627   0.018740  -0.030523
   10  H  6  S    0.131769  -0.365469  -0.077716  -0.088864  -0.133003
   11  C  7  S    0.015656  -0.022506   0.010320   0.008522  -0.029740
   12  C  7  S   -0.058012   0.090988  -0.034447  -0.031983   0.093095
   13  C  7  X    0.009530   0.083921  -0.014769   0.007386  -0.099521
   14  C  7  Y    0.086620  -0.170775   0.015366   0.007609   0.315209
   15  C  7  Z   -0.045492   0.004472  -0.062660   0.067177  -0.071545
   16  H  8  S   -0.120328  -0.136321  -0.150173   0.194540   0.185520
   17  C  9  S    0.006126  -0.017216   0.003492   0.001152   0.024714
   18  C  9  S   -0.018819   0.059065  -0.012536  -0.004605  -0.095898
   19  C  9  X    0.004207   0.079761   0.030120  -0.023479   0.255934
   20  C  9  Y    0.009790   0.008992  -0.045928   0.063857   0.117794
   21  C  9  Z    0.315831   0.051976  -0.024612  -0.014543   0.034437
   22  H 10  S   -0.157380  -0.114390   0.161440  -0.196675   0.131438
   23  C 11  S    0.036778   0.001122   0.010737   0.004812  -0.002394
   24  C 11  S   -0.134547   0.006119  -0.040585  -0.015743  -0.013963
   25  C 11  X    0.054301   0.001306   0.033398   0.026543   0.173223
   26  C 11  Y   -0.085646   0.222858  -0.016381   0.005393  -0.294384
   27  C 11  Z   -0.082186   0.007316   0.087535   0.008909  -0.102298
   28  C 12  S   -0.004614   0.002557   0.003570   0.002452   0.005096
   29  C 12  S    0.014548  -0.008895  -0.012797  -0.008945  -0.019797
   30  C 12  X   -0.173338   0.098669   0.136575   0.121008  -0.157058
   31  C 12  Y   -0.060399   0.464658  -0.031017  -0.006881   0.249605
   32  C 12  Z   -0.051796  -0.033295   0.362926   0.332964   0.090782
   33  H 13  S    0.051719   0.271333  -0.222507  -0.187321   0.200013
   34  H 14  S   -0.091430   0.136053  -0.034161  -0.008642  -0.200552
   35  C 15  S   -0.001191   0.018425   0.000609   0.001529   0.003340
   36  C 15  S    0.005408  -0.062595  -0.001653  -0.007279  -0.017100
   37  C 15  X    0.002944  -0.101179   0.013472   0.028076   0.088011
   38  C 15  Y    0.095702   0.042401  -0.020370   0.007147  -0.140322
   39  C 15  Z    0.211821   0.058889  -0.237552   0.321267  -0.052455
   40  C 16  S   -0.006037   0.022873   0.001012   0.002378   0.011697
   41  C 16  S    0.021015  -0.078981  -0.005666  -0.007883  -0.051806
   42  C 16  X    0.145013  -0.062165   0.029491  -0.045658  -0.051970
   43  C 16  Y   -0.026376  -0.130502  -0.003002   0.027222   0.259680
   44  C 16  Z    0.172111   0.081157   0.255691  -0.302486  -0.029184
   45  H 17  S    0.122361   0.104970  -0.009414  -0.002778   0.209367
   46  H 18  S   -0.054748   0.063926   0.315504   0.297572   0.114611
   47  H 19  S    0.141541  -0.014947   0.213790  -0.243878   0.046446
   48  H 20  S    0.137084  -0.027151  -0.170657   0.261137   0.015870

                     21         22         23         24         25
                   -0.4662    -0.4644    -0.4598    -0.4498    -0.3960
                     A          A          A          A          A   
    1  H  1  S   -0.080449  -0.027201  -0.057824  -0.008890  -0.191739
    2  H  2  S    0.029374  -0.088331   0.038068  -0.007765   0.524423
    3  B  3  S    0.012852   0.021449   0.007303  -0.000669  -0.011302
    4  B  3  S   -0.032021  -0.049723  -0.017216   0.003431   0.030732
    5  B  3  X   -0.038714   0.037880  -0.037702  -0.009828  -0.271883
    6  B  3  Y   -0.025292   0.040874  -0.040405   0.006864  -0.387354
    7  B  3  Z    0.047481   0.023019   0.040908   0.014333   0.070937
    8  H  4  S   -0.033403   0.009158  -0.037760   0.002108  -0.278982
    9  H  5  S   -0.177336  -0.331469  -0.183526  -0.055209   0.010944
   10  H  6  S   -0.019014   0.059109  -0.151380  -0.198742   0.001554
   11  C  7  S    0.027716  -0.009605  -0.003121   0.006270   0.002987
   12  C  7  S   -0.119706   0.047256   0.012744  -0.020251  -0.005195
   13  C  7  X   -0.374436   0.188337  -0.124785   0.071907   0.089214
   14  C  7  Y   -0.120459  -0.093326   0.018575   0.093203   0.069265
   15  C  7  Z    0.023268  -0.128749  -0.027050  -0.037818  -0.024254
   16  H  8  S   -0.088686   0.099321   0.226633  -0.071157   0.047376
   17  C  9  S   -0.007838  -0.003064  -0.015455  -0.006365   0.001473
   18  C  9  S    0.036336   0.012380   0.067938   0.028324  -0.008578
   19  C  9  X   -0.195231   0.131974  -0.104378  -0.316791   0.046211
   20  C  9  Y   -0.002801   0.085784  -0.398137   0.289160   0.058466
   21  C  9  Z    0.170321   0.369801   0.149500   0.067230  -0.017706
   22  H 10  S    0.233109   0.096948  -0.110469   0.110989   0.017420
   23  C 11  S   -0.005505  -0.009555   0.024647  -0.001325  -0.009959
   24  C 11  S    0.020460   0.047885  -0.103102   0.001900   0.035775
   25  C 11  X    0.181872  -0.071111  -0.215030  -0.281156   0.053158
   26  C 11  Y    0.007138   0.168103  -0.165953  -0.195458   0.050166
   27  C 11  Z   -0.099610  -0.070554   0.020092   0.064082   0.078923
   28  C 12  S    0.009440  -0.006238  -0.004635  -0.016651   0.000162
   29  C 12  S   -0.036569   0.024616   0.017536   0.064555   0.000529
   30  C 12  X   -0.139207   0.090604   0.142958   0.252954   0.008219
   31  C 12  Y    0.096187  -0.131110   0.098981   0.096771   0.021156
   32  C 12  Z    0.098440   0.041023  -0.012042  -0.083835  -0.029052
   33  H 13  S    0.070693  -0.150190   0.030552   0.027162   0.020579
   34  H 14  S    0.210232  -0.000958   0.033179  -0.155599  -0.100515
   35  C 15  S    0.013138  -0.003498  -0.030114  -0.007056  -0.004453
   36  C 15  S   -0.052822   0.015839   0.123498   0.022605   0.015884
   37  C 15  X    0.379661  -0.183738   0.027377  -0.089222  -0.074639
   38  C 15  Y   -0.042868  -0.041741   0.432606  -0.221200  -0.058000
   39  C 15  Z   -0.121215  -0.200816  -0.104762  -0.004090  -0.009936
   40  C 16  S   -0.033942   0.000311   0.006405  -0.002585  -0.005369
   41  C 16  S    0.134709   0.002536  -0.027635   0.016916   0.020677
   42  C 16  X    0.103437  -0.060643   0.039430   0.463759  -0.072595
   43  C 16  Y   -0.277398  -0.052699   0.270818   0.014740  -0.026751
   44  C 16  Z   -0.131061  -0.199826  -0.078255  -0.079231  -0.068000
   45  H 17  S   -0.061218   0.328120  -0.139999  -0.100920   0.051843
   46  H 18  S    0.086800   0.027171   0.030958  -0.010626  -0.029591
   47  H 19  S   -0.159590  -0.221248   0.024030  -0.013333  -0.090272
   48  H 20  S    0.039495  -0.246860  -0.130321   0.021173  -0.028148

                     26         27         28         29         30
                   -0.3942    -0.3277     0.2691     0.4536     0.5307
                     A          A          A          A          A   
    1  H  1  S    0.479356   0.100792  -0.162794  -0.000239  -0.079449
    2  H  2  S   -0.046961   0.085179  -0.094407  -0.014941   0.077446
    3  B  3  S   -0.010850  -0.026539  -0.017093  -0.090543  -0.003033
    4  B  3  S    0.029576   0.038753   0.071933   0.374827   0.011749
    5  B  3  X    0.356699  -0.133512   0.010188   0.357997   0.087786
    6  B  3  Y   -0.257305   0.102930   0.035101  -0.028295   0.018218
    7  B  3  Z   -0.173409  -0.263859   0.036825   0.914510   0.004803
    8  H  4  S   -0.388243   0.233175   0.237708   0.016187   0.006189
    9  H  5  S   -0.052081  -0.063784   0.001497   0.052981  -0.060537
   10  H  6  S    0.019602   0.012711   0.054872   0.058149   0.231407
   11  C  7  S    0.009611   0.000892  -0.030670   0.029629  -0.038061
   12  C  7  S   -0.030746  -0.014360   0.165652  -0.115415   0.212575
   13  C  7  X   -0.069666   0.055581  -0.120843   0.104298   0.407448
   14  C  7  Y    0.021712   0.107319  -0.074267  -0.077303   0.203638
   15  C  7  Z   -0.005379   0.542958  -0.670986   0.447085  -0.044291
   16  H  8  S    0.060083   0.124060   0.132744   0.083335  -0.085158
   17  C  9  S    0.002188   0.000222  -0.000230  -0.008746   0.046361
   18  C  9  S   -0.006883  -0.001115   0.001222   0.047144  -0.239520
   19  C  9  X   -0.012780   0.013189  -0.009064  -0.022576   0.296503
   20  C  9  Y    0.003086  -0.004218   0.024505  -0.005325   0.274201
   21  C  9  Z    0.060228   0.057465  -0.001559   0.078458  -0.113334
   22  H 10  S   -0.008733   0.159627  -0.109596   0.129023  -0.017875
   23  C 11  S   -0.015239   0.005196   0.039931   0.023067  -0.037543
   24  C 11  S    0.053404  -0.024959  -0.205803  -0.093657   0.205548
   25  C 11  X   -0.004863   0.152962   0.224313  -0.032238   0.395769
   26  C 11  Y    0.008648  -0.094849  -0.010130   0.125187   0.446035
   27  C 11  Z    0.131262   0.418616   0.770236   0.321251  -0.072779
   28  C 12  S   -0.012264   0.004921  -0.009523   0.022725  -0.027459
   29  C 12  S    0.047881  -0.020949   0.046515  -0.127027   0.158068
   30  C 12  X    0.028894  -0.047484   0.092007  -0.087188   0.192675
   31  C 12  Y   -0.007198   0.017873  -0.021534   0.038102   0.178064
   32  C 12  Z   -0.118768  -0.062292   0.021693   0.082529  -0.068139
   33  H 13  S    0.053250   0.101101   0.118682   0.042776  -0.194984
   34  H 14  S   -0.012446   0.022099  -0.084633  -0.154092   0.272824
   35  C 15  S    0.009348  -0.001360   0.010749   0.006633   0.004744
   36  C 15  S   -0.035927   0.004796  -0.052310  -0.033850  -0.028586
   37  C 15  X    0.076965  -0.005407   0.076276   0.003766   0.498440
   38  C 15  Y    0.020893  -0.006117   0.002414   0.011079   0.391179
   39  C 15  Z    0.038403  -0.141249  -0.040298   0.103061  -0.086003
   40  C 16  S   -0.007088   0.001906  -0.007188   0.009078   0.028217
   41  C 16  S    0.029775  -0.008786   0.034447  -0.047047  -0.152332
   42  C 16  X   -0.019368   0.005763  -0.023872   0.009933   0.575041
   43  C 16  Y   -0.016982   0.020584  -0.061211   0.012857   0.374167
   44  C 16  Z   -0.090332  -0.091709   0.048238   0.078752  -0.075134
   45  H 17  S    0.020375   0.036782  -0.005067  -0.051298  -0.220956
   46  H 18  S   -0.120872  -0.102196  -0.195588  -0.048988  -0.081558
   47  H 19  S   -0.097874  -0.121820  -0.168242  -0.099625  -0.053839
   48  H 20  S    0.057138  -0.178894   0.155254  -0.134088  -0.031447

                     31         32         33         34         35
                    0.5747     0.5917     0.6099     0.6449     0.6747
                     A          A          A          A          A   
    1  H  1  S    0.044914  -0.022142   0.032512  -0.096818  -0.051683
    2  H  2  S   -0.031849   0.100588   0.062253  -0.131440   0.030135
    3  B  3  S    0.012948  -0.009053   0.020032  -0.015444   0.003087
    4  B  3  S   -0.058983   0.029456  -0.109948   0.087411  -0.007411
    5  B  3  X   -0.076420   0.124004   0.008956  -0.007800   0.018729
    6  B  3  Y    0.004264   0.069367   0.019595  -0.118630   0.038462
    7  B  3  Z   -0.084530   0.164069   0.036060  -0.062146  -0.076962
    8  H  4  S   -0.006560   0.003881   0.043019   0.108776  -0.012061
    9  H  5  S    0.064408  -0.397936   0.566921  -0.110332  -0.025127
   10  H  6  S    0.247442   0.106280   0.085564   0.040188   0.720032
   11  C  7  S    0.032360   0.057333   0.035817  -0.153868  -0.057090
   12  C  7  S   -0.175830  -0.341847  -0.236108   0.965962   0.365109
   13  C  7  X   -0.333116  -0.082251  -0.016364  -0.092314  -0.146152
   14  C  7  Y    0.128292   0.287412   0.349426  -0.013968   0.003582
   15  C  7  Z   -0.073219   0.085003  -0.102682   0.129457   0.054325
   16  H  8  S   -0.117475  -0.247135   0.452758  -0.417265   0.157744
   17  C  9  S   -0.032088   0.037928   0.037797  -0.026270  -0.060566
   18  C  9  S    0.183501  -0.227868  -0.246820   0.164019   0.344018
   19  C  9  X   -0.355535  -0.364615  -0.169384  -0.140408  -0.215689
   20  C  9  Y    0.556602   0.140355   0.086225   0.390830  -0.505888
   21  C  9  Z    0.173684  -0.475419   0.429945  -0.011953   0.070614
   22  H 10  S    0.137479  -0.078060   0.568033   0.191391   0.058608
   23  C 11  S   -0.082673   0.056110   0.084316   0.132040   0.003998
   24  C 11  S    0.463398  -0.341214  -0.523681  -0.808312  -0.042272
   25  C 11  X   -0.257404   0.144196   0.277019  -0.109264   0.036397
   26  C 11  Y    0.311164  -0.003516  -0.044215   0.059147   0.199458
   27  C 11  Z    0.119721   0.050935  -0.178722  -0.049889  -0.017021
   28  C 12  S    0.060652  -0.013044  -0.036270  -0.031511  -0.004822
   29  C 12  S   -0.345301   0.069795   0.201702   0.181528   0.028725
   30  C 12  X   -0.381772   0.274416   0.458764   0.192328   0.151141
   31  C 12  Y    0.285442   0.008024  -0.031719   0.042866   0.784201
   32  C 12  Z    0.248353  -0.049030  -0.261186  -0.266105  -0.006749
   33  H 13  S   -0.125433   0.063017  -0.013973  -0.175809  -0.550316
   34  H 14  S    0.118386   0.379910   0.447320  -0.588975  -0.270876
   35  C 15  S   -0.061372  -0.011027   0.040222   0.006037   0.085099
   36  C 15  S    0.338356   0.038202  -0.261258  -0.028459  -0.504676
   37  C 15  X   -0.291310  -0.234360  -0.184928   0.385842  -0.062923
   38  C 15  Y    0.308599   0.215825   0.215021   0.294170  -0.434963
   39  C 15  Z   -0.008801  -0.377586   0.313328   0.176140   0.035574
   40  C 16  S    0.061273   0.026643   0.052929  -0.042004   0.065036
   41  C 16  S   -0.326227  -0.163635  -0.326537   0.261445  -0.399669
   42  C 16  X   -0.273819  -0.219023  -0.144107  -0.566059   0.086808
   43  C 16  Y    0.484173   0.007438  -0.201139   0.013314   0.036223
   44  C 16  Z    0.252629  -0.371337   0.300978  -0.158171  -0.080423
   45  H 17  S   -0.114017   0.613988   0.002256  -0.104898   0.135273
   46  H 18  S   -0.108842  -0.037639   0.125387   0.148204  -0.189191
   47  H 19  S   -0.244621   0.454900  -0.046916   0.082357   0.224256
   48  H 20  S    0.043382   0.474285  -0.042940  -0.231887   0.133101

                     36         37         38         39         40
                    0.6945     0.7117     0.7203     0.7339     0.7437
                     A          A          A          A          A   
    1  H  1  S    0.089044   0.059361   0.006963   0.041234  -0.166096
    2  H  2  S   -0.083369   0.003397  -0.026757  -0.062730   0.063823
    3  B  3  S    0.001624  -0.014764  -0.023213  -0.008263  -0.033709
    4  B  3  S   -0.007973   0.063190   0.120319   0.043289   0.172486
    5  B  3  X   -0.076158  -0.000446  -0.073362  -0.050756   0.146073
    6  B  3  Y   -0.052633   0.109249   0.103916   0.019777   0.074735
    7  B  3  Z    0.079945   0.080243   0.041621   0.038136  -0.005554
    8  H  4  S    0.035111  -0.083526  -0.111183  -0.019455  -0.066350
    9  H  5  S   -0.038240  -0.279613   0.168215   0.231430  -0.392516
   10  H  6  S   -0.163088   0.451784  -0.392916   0.069777  -0.595065
   11  C  7  S   -0.010240   0.060646  -0.015156   0.058997   0.052515
   12  C  7  S    0.069598  -0.379587   0.098742  -0.362243  -0.351604
   13  C  7  X   -0.021368  -0.285919  -0.095529  -0.313869   0.186573
   14  C  7  Y   -0.012370   0.246631   0.093962  -0.000115   0.197854
   15  C  7  Z    0.040750   0.041230   0.087593  -0.122657  -0.104212
   16  H  8  S    0.212348  -0.320971  -0.242559  -0.053638   0.047342
   17  C  9  S    0.020012  -0.060179   0.070912   0.120434  -0.143998
   18  C  9  S   -0.123154   0.398339  -0.434110  -0.734422   0.895525
   19  C  9  X   -0.009802   0.358374   0.130228   0.218491  -0.146672
   20  C  9  Y    0.002016   0.034179  -0.135727   0.080205   0.060913
   21  C  9  Z   -0.093865  -0.097513  -0.035229  -0.074860  -0.019439
   22  H 10  S   -0.136729  -0.381395   0.184944  -0.078785  -0.106287
   23  C 11  S   -0.000997   0.071981   0.064653  -0.002154  -0.005115
   24  C 11  S    0.006189  -0.456490  -0.394908   0.012833   0.037989
   25  C 11  X   -0.032641   0.158821  -0.081909  -0.089896   0.268300
   26  C 11  Y    0.046704  -0.146641  -0.059065  -0.084543  -0.076217
   27  C 11  Z    0.142299  -0.099107  -0.086900   0.219537   0.063211
   28  C 12  S    0.022957   0.026722  -0.168671  -0.021151  -0.132809
   29  C 12  S   -0.142900  -0.188358   1.078727   0.141055   0.857254
   30  C 12  X   -0.392398   0.500748  -0.171083  -0.240576  -0.312924
   31  C 12  Y    0.088155   0.200013   0.181249   0.368290  -0.072594
   32  C 12  Z   -0.865775  -0.152391   0.273967  -0.193663  -0.206657
   33  H 13  S   -0.558134   0.081524  -0.528641  -0.484094  -0.513515
   34  H 14  S   -0.056798   0.255300  -0.016692   0.107373   0.418411
   35  C 15  S    0.021893  -0.087382   0.036347  -0.153317  -0.001183
   36  C 15  S   -0.140397   0.548875  -0.241178   0.947418   0.024933
   37  C 15  X   -0.078550  -0.198230  -0.218422  -0.080773   0.151828
   38  C 15  Y    0.070976  -0.365721   0.195887   0.103269  -0.388399
   39  C 15  Z   -0.376244  -0.023180  -0.139632   0.420447   0.199951
   40  C 16  S   -0.017842  -0.115023  -0.129834  -0.023420   0.081086
   41  C 16  S    0.107134   0.727456   0.805766   0.123824  -0.494481
   42  C 16  X    0.128121  -0.107079   0.060618   0.190316  -0.323604
   43  C 16  Y   -0.052844   0.183858   0.041737  -0.329175   0.184317
   44  C 16  Z    0.296270   0.243513   0.199713  -0.444618  -0.003287
   45  H 17  S    0.106064  -0.369538   0.172889   0.193784  -0.298749
   46  H 18  S    0.877445   0.144370  -0.691071   0.049585  -0.140650
   47  H 19  S   -0.322520  -0.561428  -0.517493   0.387061   0.203078
   48  H 20  S    0.417615  -0.201569   0.330195  -0.690485  -0.283446

                     41         42         43         44         45
                    0.7565     0.7863     0.8129     0.8268     0.8669
                     A          A          A          A          A   
    1  H  1  S    0.010372  -0.064910   0.413574  -0.162706  -0.650173
    2  H  2  S   -0.069517  -0.228155   0.309797   0.157489   0.959108
    3  B  3  S   -0.000969   0.004397   0.016324   0.038101   0.020261
    4  B  3  S    0.007667  -0.027283  -0.093468  -0.226778  -0.109879
    5  B  3  X   -0.051194   0.029752  -0.271117   0.309133   0.907666
    6  B  3  Y   -0.039102  -0.408948   0.704014  -0.230503   0.624096
    7  B  3  Z    0.009196  -0.035704   0.198720  -0.023241  -0.354592
    8  H  4  S    0.045381   0.331539  -0.575593   0.386204  -0.181389
    9  H  5  S   -0.093495  -0.534252   0.097168   0.629627  -0.114274
   10  H  6  S   -0.067487   0.015986   0.188851  -0.197237  -0.037158
   11  C  7  S    0.022825   0.006202   0.006115  -0.004600  -0.020543
   12  C  7  S   -0.152024  -0.021364  -0.077205   0.049942   0.147157
   13  C  7  X   -0.006814  -0.266349   0.375526  -0.332188  -0.241044
   14  C  7  Y    0.054223   0.039361  -0.125336   0.091368  -0.101654
   15  C  7  Z   -0.176765   0.086254  -0.126349   0.152308   0.019059
   16  H  8  S   -0.687876   0.451092  -0.081505  -0.348068   0.107664
   17  C  9  S   -0.033309  -0.074159  -0.029903   0.015997   0.006871
   18  C  9  S    0.206611   0.490727   0.198907  -0.106998  -0.036563
   19  C  9  X    0.202578   0.625213   0.316250   0.206036   0.093429
   20  C  9  Y   -0.386983   0.293125   0.241716   0.003534   0.030869
   21  C  9  Z   -0.028444  -0.264132   0.322051   0.736248  -0.144590
   22  H 10  S    0.779573   0.329810   0.030510  -0.422004   0.182421
   23  C 11  S   -0.032385   0.019766  -0.003720   0.017535   0.004738
   24  C 11  S    0.203502  -0.139801   0.048784  -0.131119  -0.037270
   25  C 11  X    0.055535  -0.120625  -0.173414   0.162372  -0.134769
   26  C 11  Y    0.092223   0.081901  -0.420087   0.254921   0.072597
   27  C 11  Z    0.200729  -0.071820   0.174951  -0.005787   0.015830
   28  C 12  S    0.043168  -0.016522   0.022023  -0.033442   0.014677
   29  C 12  S   -0.275103   0.108169  -0.140006   0.215814  -0.103743
   30  C 12  X   -0.121402  -0.010029  -0.054884  -0.003525  -0.064893
   31  C 12  Y   -0.141430   0.063669   0.266508  -0.163274  -0.065220
   32  C 12  Z   -0.199497   0.117006   0.002077  -0.080860  -0.072620
   33  H 13  S    0.093205  -0.066977  -0.102861  -0.028947   0.040755
   34  H 14  S    0.140105  -0.075605   0.092150  -0.098688  -0.209171
   35  C 15  S    0.108038   0.020526   0.049805  -0.028540  -0.006255
   36  C 15  S   -0.690161  -0.143139  -0.319051   0.180055   0.036597
   37  C 15  X   -0.394195  -0.442283   0.054898  -0.200777  -0.146661
   38  C 15  Y    0.086137   0.267852   0.180993  -0.225902   0.121451
   39  C 15  Z    0.486192  -0.024706  -0.255372  -0.506043   0.127141
   40  C 16  S   -0.061539   0.039557  -0.010637   0.015096  -0.009927
   41  C 16  S    0.403195  -0.265640   0.060692  -0.095565   0.067058
   42  C 16  X    0.080325   0.156176  -0.282305  -0.028772   0.094920
   43  C 16  Y    0.466890  -0.514253  -0.241802   0.180161  -0.093371
   44  C 16  Z   -0.454630  -0.007157  -0.300511  -0.468549   0.129403
   45  H 17  S   -0.091050  -0.607547  -0.503564  -0.398366   0.005686
   46  H 18  S    0.311404  -0.152580  -0.002650   0.005270   0.115788
   47  H 19  S    0.031154   0.285238   0.297679   0.330549  -0.101914
   48  H 20  S    0.081418   0.301338   0.330699   0.311885  -0.029789

                     46         47         48
                    0.8681     0.8796     0.9828
                     A          A          A   
    1  H  1  S   -0.351582  -0.888249   0.132423
    2  H  2  S    0.063899  -0.685203  -0.012024
    3  B  3  S    0.037632  -0.260260  -0.015905
    4  B  3  S   -0.224275   1.524894   0.096179
    5  B  3  X    0.465901   0.031978  -0.195781
    6  B  3  Y   -0.503563  -0.010257   0.258623
    7  B  3  Z   -0.155237  -0.341304   0.053704
    8  H  4  S    0.622710  -0.677724  -0.277894
    9  H  5  S    0.100636   0.189219  -0.013338
   10  H  6  S    0.267039   0.105573  -0.147158
   11  C  7  S    0.029756   0.033867  -0.095285
   12  C  7  S   -0.216372  -0.206014   0.708317
   13  C  7  X    0.601089   0.093939  -0.160656
   14  C  7  Y    0.348816  -0.009050   1.025121
   15  C  7  Z   -0.096518   0.118148  -0.064596
   16  H  8  S   -0.160461   0.017552   0.117609
   17  C  9  S    0.011239   0.015315  -0.004913
   18  C  9  S   -0.072563  -0.101152   0.033390
   19  C  9  X    0.009290   0.043757   0.081477
   20  C  9  Y   -0.043826   0.026848  -0.171742
   21  C  9  Z    0.064624   0.168274  -0.007904
   22  H 10  S   -0.024735   0.000148  -0.111933
   23  C 11  S   -0.011172  -0.003621   0.090275
   24  C 11  S    0.068025   0.033746  -0.694234
   25  C 11  X   -0.579592  -0.024243  -0.692730
   26  C 11  Y   -0.460082  -0.052411   0.773306
   27  C 11  Z    0.076761   0.044021   0.188480
   28  C 12  S    0.050628   0.024039   0.037884
   29  C 12  S   -0.327665  -0.162488  -0.252895
   30  C 12  X   -0.181030   0.037616  -0.222741
   31  C 12  Y    0.328867   0.023996  -0.238611
   32  C 12  Z    0.104643  -0.033249   0.119632
   33  H 13  S   -0.119574   0.080827   0.183786
   34  H 14  S    0.510243   0.092780   0.348753
   35  C 15  S    0.040211   0.004425   0.017053
   36  C 15  S   -0.259730  -0.036828  -0.106123
   37  C 15  X    0.286255  -0.067187   0.182534
   38  C 15  Y   -0.016270   0.044013  -0.273976
   39  C 15  Z   -0.053900  -0.143388   0.012615
   40  C 16  S   -0.073507   0.002277  -0.006767
   41  C 16  S    0.475438  -0.017680   0.038464
   42  C 16  X   -0.231554  -0.025366   0.121930
   43  C 16  Y   -0.182984  -0.047927  -0.244122
   44  C 16  Z    0.005178  -0.074861  -0.044342
   45  H 17  S    0.013671  -0.064394  -0.009028
   46  H 18  S    0.006552   0.072377   0.052901
   47  H 19  S   -0.109908   0.066653   0.069333
   48  H 20  S    0.032717   0.131572  -0.068903
 ...... END OF RHF CALCULATION ......
 STEP CPU TIME =     0.15 TOTAL CPU TIME =          0.4 (      0.0 MIN)
 TOTAL WALL CLOCK TIME=          0.4 SECONDS, CPU UTILIZATION IS    93.02%

     ----------------------------------------------------------------
     PROPERTY VALUES FOR THE RHF   SELF-CONSISTENT FIELD WAVEFUNCTION
     ----------------------------------------------------------------

          -----------------
          ENERGY COMPONENTS
          -----------------

         WAVEFUNCTION NORMALIZATION =       1.0000000000

                ONE ELECTRON ENERGY =    -958.5318863831
                TWO ELECTRON ENERGY =     393.0528286790
           NUCLEAR REPULSION ENERGY =     309.1383038378
                                      ------------------
                       TOTAL ENERGY =    -256.3407538663

 ELECTRON-ELECTRON POTENTIAL ENERGY =     393.0528286790
  NUCLEUS-ELECTRON POTENTIAL ENERGY =   -1213.0124093079
   NUCLEUS-NUCLEUS POTENTIAL ENERGY =     309.1383038378
                                      ------------------
             TOTAL POTENTIAL ENERGY =    -510.8212767911
               TOTAL KINETIC ENERGY =     254.4805229248
                 VIRIAL RATIO (V/T) =       2.0073099148

          ---------------------------------------
          MULLIKEN AND LOWDIN POPULATION ANALYSES
          ---------------------------------------

     ATOMIC MULLIKEN POPULATION IN EACH MOLECULAR ORBITAL

                      1          2          3          4          5

                  2.000000   2.000000   2.000000   2.000000   2.000000

    1             0.000000  -0.000000   0.000000   0.000003  -0.000000
    2             0.000001   0.000000   0.000000   0.000003  -0.000000
    3            -0.000206  -0.000001  -0.000000  -0.000225  -0.000001
    4            -0.000008  -0.000000  -0.000000   0.000000   0.000000
    5             0.000000  -0.000000   0.000002   0.000000   0.000002
    6             0.000001  -0.000986  -0.000000  -0.000000  -0.000000
    7            -0.001173   0.000014   0.002914   1.998390   0.000989
    8             0.000000   0.000000  -0.000976  -0.000002  -0.000000
    9             0.000001   0.000000  -0.000454   0.000018   0.000083
   10            -0.000000  -0.000000   0.000000   0.000001  -0.000976
   11             2.002829  -0.000786  -0.000731  -0.001221  -0.000001
   12            -0.000723   2.003635   0.000093   0.000018   0.000000
   13            -0.000000  -0.000985  -0.000000  -0.000000  -0.000000
   14             0.000001  -0.000000  -0.000001  -0.000945  -0.000001
   15             0.000000   0.000000   0.000062   0.001053   2.000796
   16            -0.000720   0.000094   2.000073   0.002908   0.000087
   17            -0.000000   0.000000   0.000002   0.000000   0.000002
   18            -0.000001  -0.000984  -0.000000  -0.000000  -0.000000
   19            -0.000001   0.000000  -0.000982  -0.000002  -0.000000
   20            -0.000000  -0.000000  -0.000000   0.000001  -0.000981

                      6          7          8          9         10

                  2.000000   2.000000   2.000000   2.000000   2.000000

    1             0.000000  -0.001155   0.001914  -0.000006   0.001651
    2            -0.000000  -0.001162   0.001226   0.001132   0.001591
    3            -0.000001   2.003898   0.023927   0.009434   0.012999
    4             0.000000  -0.001179   0.004585   0.003760   0.000004
    5            -0.000993  -0.000000   0.014894   0.046161   0.021945
    6            -0.000000  -0.000001   0.007653   0.069264   0.003064
    7             0.000023  -0.000213   0.444706   0.080251   0.407559
    8             0.000001  -0.000000   0.019309   0.002030   0.097869
    9             2.002337  -0.000000   0.201693   0.362897   0.195781
   10            -0.000000  -0.000000   0.014172   0.034825   0.031327
   11             0.000000  -0.000184   0.547889   0.303388   0.166402
   12             0.000000  -0.000001   0.100770   0.504872   0.048034
   13            -0.000000   0.000000   0.006846   0.064205   0.011588
   14            -0.000000  -0.000001   0.026428   0.002618   0.072552
   15             0.000075  -0.000000   0.232240   0.285201   0.227483
   16            -0.000453  -0.000001   0.290579   0.073159   0.534936
   17            -0.000988  -0.000000   0.012746   0.049019   0.026112
   18            -0.000000  -0.000000   0.007889   0.068665   0.009684
   19             0.000000  -0.000000   0.023314   0.002229   0.098271
   20            -0.000001  -0.000000   0.017222   0.036897   0.031149

                     11         12         13         14         15

                  2.000000   2.000000   2.000000   2.000000   2.000000

    1             0.000546   0.002946   0.001533   0.135230   0.004002
    2             0.000616   0.005866   0.000175   0.113066   0.004998
    3             0.011101   0.025193   0.030631   0.431348   0.017330
    4             0.001478   0.003254   0.025096   0.194340   0.004352
    5             0.024778   0.153897   0.000072   0.029584   0.000564
    6             0.104746   0.002472   0.029673   0.002009   0.026934
    7             0.122128   0.145657   0.568542   0.160302   0.222808
    8             0.022733   0.054560   0.053446   0.108398   0.000953
    9             0.170478   0.436582   0.088634   0.084505   0.247273
   10             0.057015   0.079679   0.010931   0.070371   0.027990
   11             0.216256   0.148531   0.248395   0.206925   0.303574
   12             0.527713   0.016455   0.092336   0.068726   0.315749
   13             0.107314   0.003556   0.003941   0.018381   0.055313
   14             0.007947   0.007495   0.382163   0.004959   0.035275
   15             0.268461   0.322295   0.092887   0.128060   0.299909
   16             0.138224   0.260681   0.264198   0.184127   0.121750
   17             0.031844   0.135334   0.009954   0.016936   0.127688
   18             0.111079   0.002962   0.019041   0.025787   0.047450
   19             0.021007   0.083533   0.074887   0.010815   0.034095
   20             0.054539   0.109050   0.003465   0.006130   0.101993

                     16         17         18         19         20

                  2.000000   2.000000   2.000000   2.000000   2.000000

    1             0.053725   0.011418   0.099058   0.012359   0.003664
    2             0.102240   0.003647   0.045025   0.009726   0.023111
    3             0.232936   0.021371   0.131476   0.042454   0.030238
    4             0.086378   0.012794   0.001305   0.026280   0.008309
    5             0.191909   0.000187   0.001133   0.001017   0.001697
    6             0.054277   0.377063   0.016789   0.021014   0.043761
    7             0.036670   0.121290   0.019687   0.017981   0.294088
    8             0.043817   0.052253   0.062817   0.101663   0.089140
    9             0.351083   0.034694   0.012254   0.015490   0.240885
   10             0.076875   0.037586   0.075216   0.104208   0.044800
   11             0.080397   0.147722   0.038922   0.002491   0.301423
   12             0.122801   0.723291   0.480610   0.380004   0.271594
   13             0.008767   0.207867   0.138774   0.093132   0.102590
   14             0.024032   0.051804   0.003019   0.000162   0.105286
   15             0.188318   0.055110   0.183575   0.318668   0.084393
   16             0.176448   0.096893   0.209018   0.285162   0.200049
   17             0.045219   0.031108   0.000220   0.000016   0.113981
   18             0.008301   0.011225   0.274118   0.231851   0.033827
   19             0.059581   0.000603   0.126314   0.154849   0.006351
   20             0.056226   0.002077   0.080673   0.181471   0.000814

                     21         22         23         24         25

                  2.000000   2.000000   2.000000   2.000000   2.000000

    1             0.019742   0.002423   0.010523   0.000240   0.096534
    2             0.002614   0.023906   0.004231   0.000209   0.733582
    3             0.021219   0.021757   0.019774   0.001282   0.801018
    4             0.003480   0.000167   0.003940   0.000008   0.196326
    5             0.077151   0.260158   0.082535   0.007482   0.000169
    6             0.000579   0.007722   0.053738   0.093201   0.000022
    7             0.407911   0.160792   0.045921   0.037454   0.027997
    8             0.020446   0.021888   0.120725   0.011738   0.004013
    9             0.176903   0.432516   0.510007   0.507184   0.014530
   10             0.131724   0.020947   0.031128   0.028586   0.000526
   11             0.100051   0.096642   0.189590   0.283461   0.030058
   12             0.104569   0.072029   0.080445   0.213036   0.003171
   13             0.012187   0.053427   0.002031   0.001297   0.000755
   14             0.105943   0.000004   0.002418   0.056002   0.019066
   15             0.428540   0.202003   0.541966   0.153005   0.021615
   16             0.293262   0.120180   0.207451   0.579857   0.024540
   17             0.009732   0.248482   0.048310   0.024111   0.005587
   18             0.018050   0.001508   0.002043   0.000396   0.001842
   19             0.061542   0.111718   0.001600   0.000430   0.016979
   20             0.004354   0.141730   0.041624   0.001019   0.001672

                     26         27

                  2.000000   2.000000

    1             0.610154   0.025238
    2             0.005644   0.018083
    3             0.781516   0.340585
    4             0.379559   0.127627
    5             0.005082   0.007277
    6             0.000522   0.000337
    7             0.012700   0.726346
    8             0.006687   0.029393
    9             0.009030   0.007101
   10             0.000017   0.047701
   11             0.049010   0.466382
   12             0.035853   0.013907
   13             0.004974   0.019868
   14             0.000283   0.000760
   15             0.019437   0.042394
   16             0.021020   0.018745
   17             0.000835   0.002311
   18             0.030734   0.019288
   19             0.019912   0.027255
   20             0.007033   0.059400

               ----- POPULATIONS IN EACH AO -----
                             MULLIKEN      LOWDIN
              1  H  1  S      1.09174     1.07491
              2  H  2  S      1.09953     1.08292
              3  B  3  S      1.98913     1.97863
              4  B  3  S      0.91236     0.86684
              5  B  3  X      0.81837     0.86874
              6  B  3  Y      0.85204     0.90731
              7  B  3  Z      0.43916     0.49086
              8  H  4  S      1.08186     1.05967
              9  H  5  S      0.92670     0.96201
             10  H  6  S      0.91385     0.94966
             11  C  7  S      1.99271     1.98628
             12  C  7  S      1.17437     1.04670
             13  C  7  X      0.95329     0.98892
             14  C  7  Y      0.98191     1.02226
             15  C  7  Z      0.95945     0.95687
             16  H  8  S      0.92290     0.95886
             17  C  9  S      1.99210     1.98511
             18  C  9  S      1.18185     1.03161
             19  C  9  X      0.96538     0.99835
             20  C  9  Y      0.94002     0.97895
             21  C  9  Z      1.02215     1.04482
             22  H 10  S      0.92465     0.96052
             23  C 11  S      1.99287     1.98617
             24  C 11  S      1.18427     1.06676
             25  C 11  X      0.96873     0.99813
             26  C 11  Y      0.97307     1.01582
             27  C 11  Z      0.80846     0.80805
             28  C 12  S      1.99201     1.98539
             29  C 12  S      1.18422     1.01257
             30  C 12  X      0.94622     0.98694
             31  C 12  Y      1.04392     1.06401
             32  C 12  Z      1.01262     1.03768
             33  H 13  S      0.91583     0.95142
             34  H 14  S      0.90727     0.94579
             35  C 15  S      1.99209     1.98514
             36  C 15  S      1.18161     1.03029
             37  C 15  X      0.93219     0.97364
             38  C 15  Y      0.97252     1.00533
             39  C 15  Z      1.01914     1.03993
             40  C 16  S      1.99212     1.98519
             41  C 16  S      1.18439     1.03435
             42  C 16  X      0.93924     0.97996
             43  C 16  Y      0.96709     1.00101
[...]
 18   H            X  0.00767794  0.01934378  0.00011927 -0.00017525 -0.00002866
                   Y  0.00098003 -0.07605216 -0.00070461  0.00061944 -0.00014096
                   Z -0.00019718  0.00330458  0.00081656 -0.00079238 -0.00010003
 19   H            X  0.07818777 -0.05782265 -0.00044008  0.00003034  0.00064136
                   Y -0.16201405 -0.07187843 -0.00051033  0.00024995  0.00105759
                   Z  0.11130552  0.03517437  0.00055939 -0.00090262  0.00063434
 20   H            X -0.12726002 -0.07799840 -0.00026655 -0.00139586  0.00125599
                   Y  0.20496384 -0.00715604  0.00013079 -0.00015453 -0.00082536
                   Z  0.18301354  0.02279983  0.00077409  0.00072389  0.00038327

 TRANS. SAYVETZ    X  0.00000025  0.00000076  0.00000008 -0.00000003  0.00000007
                   Y -0.00000006  0.00000010  0.00000014 -0.00000000 -0.00000004
                   Z  0.00000011 -0.00000000 -0.00000032  0.00000021 -0.00000002
               TOTAL  0.00000027  0.00000076  0.00000035  0.00000021  0.00000009

   ROT. SAYVETZ    X  0.00009094 -0.00023322  0.00040097  0.00013524 -0.00013625
                   Y -0.00025751  0.00023241  0.00000756 -0.00014522 -0.00004591
                   Z -0.00043699 -0.00006172  0.00116798 -0.00004880 -0.00003470
               TOTAL  0.00051530  0.00033498  0.00123492  0.00020436  0.00014791

                           51          52          53          54          55
       FREQUENCY:      3569.80     3608.88     3610.14     3632.36     3724.24  
        SYMMETRY:         A           A           A           A           A   
    REDUCED MASS:      1.03944     1.06719     1.06676     1.06884     1.11001
    IR INTENSITY:      0.00363     0.02460     0.01940     0.02233     0.00315

  1   H            X -0.00061128  0.00104700 -0.00126706 -0.00247815  0.00077296
                   Y -0.00020157 -0.00030967 -0.00033825 -0.00074423 -0.00010814
                   Z  0.00022252 -0.00016689  0.00039753  0.00105777 -0.00030146
  2   H            X  0.00028564 -0.00048606 -0.00002213  0.00005975 -0.00017881
                   Y  0.00088183 -0.00041325  0.00051814 -0.00004442 -0.00068531
                   Z -0.00014250 -0.00022586  0.00003369  0.00006355  0.00023341
  3   B            X  0.00016825  0.00010410  0.00030207  0.00006907 -0.00012577
                   Y -0.00019886 -0.00001681  0.00002007 -0.00001962  0.00011557
                   Z  0.00010963  0.00015960  0.00010222 -0.00018173 -0.00006738
  4   H            X -0.00221918  0.00057484 -0.00079963  0.00000930  0.00058615
                   Y  0.00239066 -0.00071475  0.00167961 -0.00001572 -0.00124871
                   Z  0.00112559 -0.00009231  0.00002209  0.00008262  0.00007205
  5   H            X  0.00027509 -0.01690286 -0.02768347 -0.16504642  0.01168540
                   Y  0.00021293 -0.01523216 -0.01786353 -0.12104803  0.01156212
                   Z -0.00109400  0.06115728  0.09228339  0.59895624 -0.04883080
  6   H            X -0.29588911  0.00136276 -0.00264544 -0.00010611 -0.00473482
                   Y -0.42312563  0.00210037 -0.00311330 -0.00012969 -0.00663555
                   Z -0.03217759  0.00017183  0.00004544  0.00000154 -0.00031588
  7   C            X -0.00021889  0.00087720  0.00012946  0.00016136 -0.00021378
                   Y  0.00033790 -0.00247759 -0.00034378  0.00068383 -0.00042983
                   Z  0.00007448  0.00020773  0.00015702 -0.00021702 -0.00009401
  8   H            X  0.00070683  0.02711959 -0.16809637  0.02259246  0.20122614
                   Y -0.00120987 -0.05913186  0.37174085 -0.04978528 -0.45319634
                   Z  0.00173119  0.07014812 -0.44059967  0.06106760  0.51996693
  9   C            X -0.00008706  0.00766221  0.00832505  0.06111858  0.00241891
                   Y -0.00006993  0.00055686  0.00661590  0.03114518  0.00031765
                   Z  0.00001981 -0.00065540 -0.00104986 -0.01534778  0.00758710
 10   H            X  0.00083492  0.18065728  0.02492126 -0.02088274  0.04232675
                   Y -0.00120762 -0.29446244 -0.03984186  0.03442567 -0.06881283
                   Z -0.00202036 -0.44774029 -0.06106134  0.05421926 -0.10104844
 11   C            X -0.00249736  0.00028060  0.00106581 -0.00068052 -0.00009948
                   Y  0.00040689 -0.00018281  0.00143827 -0.00005235 -0.00030792
                   Z  0.00084943  0.00002224 -0.00040271  0.00020615  0.00034772
 12   C            X  0.04209748 -0.00024883  0.00026062  0.00006162  0.00095481
                   Y -0.01185113 -0.00004888  0.00004540 -0.00011144  0.00021243
                   Z -0.02909612  0.00006436  0.00015426 -0.00011533  0.00153186
 13   H            X -0.23805874  0.00085084 -0.00140381 -0.00016760 -0.00411819
                   Y  0.39478239 -0.00141796  0.00203141  0.00049854  0.00722734
                   Z -0.25497086  0.00082102 -0.00139780 -0.00034518 -0.00458273
 14   H            X -0.00132389  0.01043376  0.00309415 -0.00680541  0.00170294
                   Y -0.00354527  0.02414153  0.00892211 -0.01319049  0.00380151
                   Z  0.00113323 -0.00613810 -0.00258243  0.00398708 -0.00261093
 15   C            X -0.00016062 -0.04675220 -0.00698097  0.00523367  0.00016391
                   Y  0.00019144  0.04958585  0.00666264 -0.00886788  0.00298442
                   Z -0.00006135 -0.01525511 -0.00208892  0.00341609  0.01528827
 16   C            X -0.00021617 -0.00221650  0.01115495 -0.00402964 -0.02000215
                   Y  0.00033552  0.01026749 -0.06659795  0.01023043  0.01323115
                   Z  0.00018577  0.00259851 -0.01583034  0.00358857 -0.08654170
 17   H            X  0.00081442 -0.06177399 -0.08858514 -0.50655608 -0.03656197
                   Y  0.00042095 -0.02690087 -0.03877168 -0.22187156 -0.01835374
                   Z  0.00077928 -0.05141396 -0.07390545 -0.43465136 -0.03259433
 18   H            X  0.06934846 -0.00007087  0.00006671  0.00019270 -0.00165627
                   Y  0.16221839 -0.00063267  0.00027309  0.00035389 -0.00333859
                   Z  0.61882895 -0.00216623  0.00061652  0.00136471 -0.01285862
 19   H            X -0.00035958 -0.00715469  0.04494136 -0.00879993  0.03455748
                   Y -0.00183699 -0.05861483  0.37164912 -0.05534374  0.30437061
                   Z -0.00301472 -0.09874626  0.62446029 -0.09429112  0.50044126
 20   H            X  0.00097613  0.34421125  0.04802068 -0.04938260 -0.04446370
                   Y -0.00080808 -0.25526229 -0.03581254  0.03385348  0.03355176
                   Z  0.00212562  0.62764717  0.08752159 -0.08868446 -0.08003093

 TRANS. SAYVETZ    X  0.00000011 -0.00000034 -0.00000024  0.00000036 -0.00000003
                   Y  0.00000021  0.00000037 -0.00000022  0.00000002 -0.00000001
                   Z -0.00000046 -0.00000023 -0.00000030  0.00000032 -0.00000005
               TOTAL  0.00000051  0.00000055  0.00000044  0.00000048  0.00000006

   ROT. SAYVETZ    X  0.00018872 -0.00042501  0.00062686  0.00025861 -0.00004754
                   Y -0.00021301 -0.00033074  0.00003896 -0.00068244 -0.00002493
                   Z -0.00001877  0.00015258 -0.00012059 -0.00007777 -0.00002348
               TOTAL  0.00028521  0.00055974  0.00063954  0.00073393  0.00005859

                           56          57          58          59          60
       FREQUENCY:      3726.55     3739.97     3746.79     3749.14     3768.51  
        SYMMETRY:         A           A           A           A           A   
    REDUCED MASS:      1.11029     1.10703     1.10021     1.11090     1.11030
    IR INTENSITY:      0.00019     0.00629     0.41823     0.01003     0.01283

  1   H            X -0.00248664  0.00111857  0.00178567 -0.00331872  0.00000845
                   Y  0.00004020  0.00002703  0.00059255 -0.00110185  0.00010081
                   Z  0.00097981 -0.00023690 -0.00142882  0.00112866 -0.00003188
  2   H            X -0.00043964  0.00013261  0.00213703 -0.00060467 -0.00006024
                   Y -0.00086765 -0.00035887  0.00494996 -0.00111959  0.00011164
                   Z  0.00036854  0.00001117 -0.00137454  0.00037468  0.00003163
  3   B            X  0.00026434 -0.00035553 -0.00103901  0.00033499  0.00012765
                   Y  0.00003545  0.00032453  0.00058601  0.00005498 -0.00007490
                   Z -0.00022683 -0.00001426 -0.00039009 -0.00019818  0.00007444
  4   H            X -0.00088420  0.00253330  0.00225585 -0.00056133 -0.00155867
                   Y  0.00051148 -0.00240489 -0.00261238  0.00038129  0.00195584
                   Z  0.00066384 -0.00031049 -0.00374518  0.00042096  0.00009576
  5   H            X  0.01910633  0.00203705 -0.01320594 -0.18889656  0.00011504
                   Y  0.01234640  0.00150742 -0.00986835 -0.13691289  0.00012746
                   Z -0.07177144 -0.00739638  0.04622504  0.65680756 -0.00050608
  6   H            X -0.00269192  0.19964089 -0.01534280  0.00277905  0.41249989
                   Y -0.00394565  0.28894724 -0.02196875  0.00403409  0.59195356
                   Z -0.00022752  0.01675444 -0.00123622  0.00023570  0.04419097
  7   C            X  0.00114741 -0.00246571 -0.03355428  0.00218078 -0.00017994
                   Y  0.00398954 -0.00548399 -0.07660540  0.00508453  0.00024977
                   Z -0.00072192  0.00153333  0.02178583 -0.00140391  0.00014870
  8   H            X  0.03303647  0.00358933  0.00353909  0.01972500  0.00024677
                   Y -0.07567946 -0.00857214 -0.00628264 -0.04214986 -0.00005291
                   Z  0.08702118  0.00972220  0.00687447  0.04765953  0.00023146
  9   C            X  0.00338168  0.00035989 -0.00012558 -0.02204459  0.00000333
                   Y  0.00132028  0.00012817  0.00042285 -0.00508199  0.00003435
                   Z  0.01125378  0.00106400 -0.00554872 -0.08807778  0.00005525
 10   H            X -0.24550279 -0.00290180 -0.02044347 -0.02213066 -0.00026943
                   Y  0.39444042  0.00476091  0.03051754  0.03776157  0.00034316
                   Z  0.58312130  0.00712766  0.04579550  0.05388143  0.00046243
 11   C            X -0.00010330  0.00059412 -0.00308892  0.00026992  0.00033604
                   Y -0.00037779  0.00002832  0.00595475 -0.00045767  0.00015717
                   Z -0.00009999 -0.00020744  0.00055709 -0.00009690 -0.00023657
 12   C            X  0.00048099 -0.04381664  0.00374390 -0.00062397 -0.01301758
                   Y  0.00016637 -0.00576009  0.00010708 -0.00007428 -0.08964931
                   Z  0.00077463 -0.07845104  0.00555618 -0.00105784  0.01377504
 13   H            X -0.00263093  0.23464744 -0.01792051  0.00307691 -0.27163138
                   Y  0.00425769 -0.39669389  0.03085609 -0.00526684  0.45175220
                   Z -0.00248017  0.24700130 -0.02002619  0.00336075 -0.29051776
 14   H            X -0.02023737  0.02955937  0.39936417 -0.02586127 -0.00074354
                   Y -0.04124033  0.06064370  0.81822856 -0.05307470 -0.00096112
                   Z  0.01291233 -0.01770430 -0.24598984  0.01557721  0.00015200
 15   C            X  0.00035945  0.00032157  0.00419261 -0.00061824  0.00003365
                   Y -0.01829531 -0.00025706 -0.00176109 -0.00129499  0.00001750
                   Z -0.08764414 -0.00104141 -0.00500913 -0.00829140 -0.00003474
 16   C            X -0.00332856 -0.00027960 -0.00051334 -0.00175785  0.00025385
                   Y  0.00260516  0.00013630  0.00099254  0.00075918 -0.00007055
                   Z -0.01424890 -0.00180225 -0.00051487 -0.00789635 -0.00031926
 17   H            X -0.05825464 -0.00564451  0.02194376  0.44953942  0.00000085
                   Y -0.02390368 -0.00252832  0.00968977  0.19754265 -0.00002891
                   Z -0.04948850 -0.00484253  0.01812361  0.37844527 -0.00005340
 18   H            X -0.00065898  0.07601666 -0.00556500  0.00097107  0.00949551
                   Y -0.00197115  0.17883759 -0.01259789  0.00241879  0.01746107
                   Z -0.00746714  0.67444167 -0.04687782  0.00902124  0.08407226
 19   H            X  0.00562427  0.00090644  0.00037428  0.00135555  0.00020060
                   Y  0.04876827  0.00716164 -0.00024132  0.03450438  0.00089397
                   Z  0.08011881  0.01164290 -0.00033627  0.05448050  0.00159196
 20   H            X  0.25006109  0.00146541  0.00184072  0.02928904 -0.00002166
                   Y -0.18702976 -0.00141663 -0.00359825 -0.02493425 -0.00002226
                   Z  0.44851584  0.00345116  0.00790888  0.05270857  0.00005397

 TRANS. SAYVETZ    X  0.00000006 -0.00000004 -0.00000026  0.00000001 -0.00000000
                   Y -0.00000006 -0.00000002 -0.00000008 -0.00000002 -0.00000014
                   Z -0.00000011  0.00000003  0.00000018 -0.00000007  0.00000000
               TOTAL  0.00000013  0.00000005  0.00000033  0.00000008  0.00000014

   ROT. SAYVETZ    X -0.00003654  0.00002910 -0.00006084 -0.00003943 -0.00015524
                   Y  0.00010619 -0.00004749  0.00001318 -0.00006417  0.00006918
                   Z  0.00001097  0.00004297 -0.00006054 -0.00000054  0.00002590
               TOTAL  0.00011284  0.00007035  0.00008684  0.00007532  0.00017192

 REFERENCE ON SAYVETZ CONDITIONS - A. SAYVETZ, J.CHEM.PHYS., 7, 383-389(1939).

 NOTE - THE MODES J,K ARE ORTHONORMALIZED ACCORDING TO
 SUM ON I   M(I) * (X(I,J)*X(I,K) + Y(I,J)*Y(I,K) + Z(I,J)*Z(I,K)) = DELTA(J,K)

  MODE FREQ(CM**-1)  SYMMETRY  RED. MASS  IR INTENS.
     1      74.695    A        1.139001    0.022996
     2       0.028    A        4.804796    0.000001
     3       0.005    A        4.805478    0.000000
     4       0.006    A        4.805578    0.000000
     5       8.455    A        3.063153    0.059783
     6      10.795    A        2.920741    0.044650
     7      13.360    A        2.803215    0.056504
     8     150.673    A        1.637791    0.026247
     9     208.806    A        1.052025    0.011584
    10     240.553    A        2.447909    0.105249
    11     289.643    A        2.999293    0.601378
    12     311.800    A        3.552200    0.371248
    13     343.189    A        2.815235    0.575040
    14     366.071    A        2.626041    0.151399
    15     493.675    A        2.450926    0.445412
    16     666.189    A        3.955352    0.021858
    17     809.373    A        2.636114    0.025583
    18     900.826    A        1.400309    0.034146
    19     957.247    A        1.161055    0.409242
    20    1003.898    A        2.909474    0.112315
    21    1028.189    A        1.241179    0.163885
    22    1061.341    A        1.283750    0.023244
    23    1081.605    A        2.107123    0.065597
    24    1101.266    A        1.307327    0.126005
    25    1122.942    A        1.660032    0.008351
    26    1208.389    A        1.340879    0.294216
    27    1241.620    A        1.344685    0.208835
    28    1259.410    A        1.663679    0.013251
    29    1294.055    A        1.636981    0.099248
    30    1377.800    A        1.208741    0.156617
    31    1386.821    A        1.996430    0.106588
    32    1428.639    A        1.150867    6.069339
    33    1464.238    A        1.198102    0.321561
    34    1498.215    A        1.120602    0.007447
    35    1512.554    A        1.455021    0.032432
    36    1529.260    A        1.091597    0.297864
    37    1550.669    A        1.074873    0.212858
    38    1601.483    A        1.983031    0.143329
    39    1626.387    A        1.716507    0.040372
    40    1645.123    A        1.931736    0.005448
    41    1717.769    A        1.317732    0.028287
    42    1800.313    A        1.070717    0.059807
    43    1803.201    A        1.083290    0.049502
    44    1807.848    A        1.062452    0.102608
    45    1812.623    A        1.106262    0.001153
    46    1833.834    A        1.119930    0.012252
    47    1948.178    A        5.774975    0.331490
    48    3089.840    A        1.020286    0.140917
    49    3265.361    A        1.120993    0.246519
    50    3305.050    A        1.129252    0.684465
    51    3569.801    A        1.039438    0.003627
    52    3608.877    A        1.067194    0.024595
    53    3610.143    A        1.066756    0.019400
    54    3632.357    A        1.068845    0.022330
    55    3724.236    A        1.110007    0.003149
    56    3726.551    A        1.110294    0.000185
    57    3739.974    A        1.107032    0.006293
    58    3746.790    A        1.100206    0.418233
    59    3749.140    A        1.110898    0.010025
    60    3768.511    A        1.110304    0.012827

     -------------------------------
     THERMOCHEMISTRY AT T=  298.15 K
     -------------------------------

 USING IDEAL GAS, RIGID ROTOR, HARMONIC NORMAL MODE APPROXIMATIONS.
 P=  1.01325E+05 PASCAL.
 ALL FREQUENCIES ARE SCALED BY   1.00000
 THE MOMENTS OF INERTIA ARE (IN AMU*BOHR**2)
            485.78870           768.07217           919.96981
 THE ROTATIONAL SYMMETRY NUMBER IS  1.0
 THE ROTATIONAL CONSTANTS ARE (IN GHZ)
      3.71167     2.34755     1.95994
   1 IMAGINARY FREQUENCY VIBRATION(S) IS(ARE) EXCLUDED
     FROM THE FOLLOWING THERMOCHEMICAL ANALYSIS.
      8 -     60 VIBRATIONAL MODES ARE USED IN THERMOCHEMISTRY.
 THE HARMONIC ZERO POINT ENERGY IS (SCALED BY   1.000)
        0.211921 HARTREE/MOLECULE    46511.171719 CM**-1/MOLECULE 
      132.982247 KCAL/MOL              556.397720 KJ/MOL

               Q               LN Q
 ELEC.     1.00000E+00       0.000000
 TRANS.    3.70351E+07      17.427377
 ROT.      2.09726E+05      12.253559
 VIB.      1.43026E+01       2.660444
 TOT.      1.11092E+14      32.341379

              E         H         G         CV        CP        S
           KJ/MOL    KJ/MOL    KJ/MOL   J/MOL-K   J/MOL-K   J/MOL-K
 ELEC.      0.000     0.000     0.000     0.000     0.000     0.000
 TRANS.     3.718     6.197   -43.201    12.472    20.786   165.684
 ROT.       3.718     3.718   -30.376    12.472    12.472   114.353
 VIB.     567.061   567.061   549.803    80.629    80.629    57.886
 TOTAL    574.498   576.977   476.225   105.572   113.887   337.923
 VIB. THERMAL CORRECTION E(T)-E(0) = H(T)-H(0) =     10663.734 J/MOL

              E         H         G         CV        CP        S
         KCAL/MOL  KCAL/MOL  KCAL/MOL CAL/MOL-K CAL/MOL-K CAL/MOL-K
 ELEC.      0.000     0.000     0.000     0.000     0.000     0.000
 TRANS.     0.889     1.481   -10.325     2.981     4.968    39.600
 ROT.       0.889     0.889    -7.260     2.981     2.981    27.331
 VIB.     135.531   135.531   131.406    19.271    19.271    13.835
 TOTAL    137.308   137.901   113.821    25.232    27.220    80.766
 VIB. THERMAL CORRECTION E(T)-E(0) = H(T)-H(0) =      2548.694 CAL/MOL
 ......END OF NORMAL COORDINATE ANALYSIS......
 STEP CPU TIME =     0.01 TOTAL CPU TIME =         75.9 (      1.3 MIN)
 TOTAL WALL CLOCK TIME=         76.1 SECONDS, CPU UTILIZATION IS    99.71%
               580000  WORDS OF DYNAMIC MEMORY USED
 EXECUTION OF GAMESS TERMINATED NORMALLY Tue Nov 16 06:18:15 2021
 DDI: 263640 bytes (0.3 MB / 0 MWords) used by master data server.

 ----------------------------------------
 CPU timing information for all processes
 ========================================
 0: 74.829 + 1.47 = 75.877
 ----------------------------------------
 ddikick.x: exited gracefully.
----- accounting info -----
Files used on the master node chemcompute-node-0.novalocal were:
-rw-r--r--. 1 chemcomp chemcomp     1505 Nov 16 06:16 /scratch/307500/343541.F05
-rw-rw-r--. 1 chemcomp chemcomp  8100720 Nov 16 06:17 /scratch/307500/343541.F08
-rw-rw-r--. 1 chemcomp chemcomp 70451200 Nov 16 06:18 /scratch/307500/343541.F10
-rw-rw-r--. 1 chemcomp chemcomp   564960 Nov 16 06:18 /scratch/307500/343541.F18
Tue Nov 16 06:18:18 UTC 2021
0.132u 0.087s 1:19.67 0.2%	0+0k 8+216io 0pf+0w
Finishing Up...
Looking for IR data...
Looking for Raman data...
vibramans not found
Looking for thermodynamics data...
Looking for UV-Vis data...
307500
