----- GAMESS execution script 'rungms' -----
This job is running on host chemcompute-node-0.novalocal
under operating system Linux at Sat Nov 13 22:01:27 UTC 2021
SLURM has assigned the following compute nodes to this run:
chemcompute-node-0
Available scratch disk space (Kbyte units) at beginning of the job is
Filesystem     1K-blocks     Used Available Use% Mounted on
/dev/sda1       62903276 16872636  46030640  27% /
GAMESS temporary binary files will be written to /scratch/306206
GAMESS supplementary output files will be written to /data/slurm/342108
Copying input file 342108.inp to your run's scratch directory...
The generated host list is
chemcompute-node-0.novalocal

 Distributed Data Interface kickoff program.
 Initiating 1 compute processes on 1 nodes to run the following command:
 /data/gamess-2019R1-ddi/gamess.00.x 342108 

          ******************************************************
          *         GAMESS VERSION = 30 JUN 2019 (R1)          *
          *             FROM IOWA STATE UNIVERSITY             *
          * M.W.SCHMIDT, K.K.BALDRIDGE, J.A.BOATZ, S.T.ELBERT, *
          *   M.S.GORDON, J.H.JENSEN, S.KOSEKI, N.MATSUNAGA,   *
          *          K.A.NGUYEN, S.J.SU, T.L.WINDUS,           *
          *       TOGETHER WITH M.DUPUIS, J.A.MONTGOMERY       *
          *         J.COMPUT.CHEM.  14, 1347-1363(1993)        *
          **************** 64 BIT LINUX VERSION ****************

  SINCE 1993, STUDENTS AND POSTDOCS WORKING AT IOWA STATE UNIVERSITY
  AND ALSO IN THEIR VARIOUS JOBS AFTER LEAVING ISU HAVE MADE IMPORTANT
  CONTRIBUTIONS TO THE CODE:
     IVANA ADAMOVIC, CHRISTINE AIKENS, YURI ALEXEEV, POOJA ARORA,
     ANDREY ASADCHEV, ROB BELL, PRADIPTA BANDYOPADHYAY, JONATHAN BENTZ,
     COLLEEN BERTONI, BRETT BODE, KURT BRORSEN, CALEB CARLIN, GALINA CHABAN,
     WEI CHEN, CHEOL HO CHOI, PAUL DAY, ALBERT DEFUSCO, NUWAN DESILVA,
     TIM DUDLEY, DMITRI FEDOROV, ALEX FINDLATER, GRAHAM FLETCHER, 
     MARK FREITAG, KURT GLAESEMANN, ANASTASIA GUNINA,
     DAN KEMP, GRANT MERRILL, NORIYUKI MINEZAWA, JONATHAN MULLIN,
     TAKESHI NAGATA, SEAN NEDD, HEATHER NETZLOFF, BOSILJKA NJEGIC, RYAN OLSON,
     MIKE PAK, BUU PHAM,
     SPENCER PRUITT, LUKE ROSKOP, JIM SHOEMAKER, LYUDMILA SLIPCHENKO,
     TONY SMITH, SAROM SOK LEANG, JIE SONG, TETSUYA TAKETSUGU, SIMON WEBB,
     PENG XU, SOOHAENG YOO, FEDERICO ZAHARIEV

  ADDITIONAL CODE HAS BEEN PROVIDED BY COLLABORATORS IN OTHER GROUPS:
     IOWA STATE UNIVERSITY:
          JOE IVANIC, AARON WEST, LAIMUTIS BYTAUTAS, KLAUS RUEDENBERG
     UNIVERSITY OF TOKYO: KIMIHIKO HIRAO, TAKAHITO NAKAJIMA,
          TAKAO TSUNEDA, MUNEAKI KAMIYA, SUSUMU YANAGISAWA,
          KIYOSHI YAGI, MAHITO CHIBA, SEIKEN TOKURA, NAOAKI KAWAKAMI
     UNIVERSITY OF AARHUS: FRANK JENSEN
     UNIVERSITY OF IOWA: VISVALDAS KAIRYS, HUI LI
     NATIONAL INST. OF STANDARDS AND TECHNOLOGY: WALT STEVENS, DAVID GARMER
     UNIVERSITY OF PISA: BENEDETTA MENNUCCI, JACOPO TOMASI
     UNIVERSITY OF MEMPHIS: HENRY KURTZ, PRAKASHAN KORAMBATH
     UNIVERSITY OF ALBERTA: TOBY ZENG, MARIUSZ KLOBUKOWSKI
     UNIVERSITY OF NEW ENGLAND: MARK SPACKMAN
     MIE UNIVERSITY: HIROAKI UMEDA
     NAT. INST. OF ADVANCED INDUSTRIAL SCIENCE AND TECHNOLOGY: KAZUO KITAURA
     MICHIGAN STATE UNIVERSITY:
          KAROL KOWALSKI, MARTA WLOCH, JEFFREY GOUR, JESSE LUTZ,
          WEI LI, JUN SHEN, J. EMILIANO DEUSTUA, PIOTR PIECUCH
     UNIVERSITY OF MINNESOTA:
          YINAN SHU
     UNIVERSITY OF SILESIA: MONIKA MUSIAL, STANISLAW KUCHARSKI
     FACULTES UNIVERSITAIRES NOTRE-DAME DE LA PAIX:
          OLIVIER QUINET, BENOIT CHAMPAGNE
     UNIVERSITY OF CALIFORNIA - SANTA BARBARA: BERNARD KIRTMAN
     INSTITUTE FOR MOLECULAR SCIENCE:
          KAZUYA ISHIMURA, MICHIO KATOUDA, AND SHIGERU NAGASE
     UNIVERSITY OF NOTRE DAME: ANNA POMOGAEVA, DAN CHIPMAN
     KYUSHU UNIVERSITY:
          HARUYUKI NAKANO,
          FENG LONG GU, JACEK KORCHOWIEC, MARCIN MAKOWSKI, AND YURIKO AOKI,
          HIROTOSHI MORI AND EISAKU MIYOSHI
     PENNSYLVANIA STATE UNIVERSITY:
          TZVETELIN IORDANOV, CHET SWALINA, JONATHAN SKONE,
          SHARON HAMMES-SCHIFFER
     WASEDA UNIVERSITY:
          MASATO KOBAYASHI, TOMOKO AKAMA, TSUGUKI TOUMA,
          TAKESHI YOSHIKAWA, YASUHIRO IKABATA, JUNJI SEINO,
          YUYA NAKAJIMA, HIROMI NAKAI
     NANJING UNIVERSITY: SHUHUA LI
     UNIVERSITY OF NEBRASKA:
          PEIFENG SU, DEJUN SI, NANDUN THELLAMUREGE, YALI WANG, HUI LI
     UNIVERSITY OF ZURICH: ROBERTO PEVERATI, KIM BALDRIDGE
     N. COPERNICUS UNIVERSITY AND JACKSON STATE UNIVERSITY:
          MARIA BARYSZ
     UNIVERSITY OF COPENHAGEN: Jimmy Kromann, CASPER STEINMANN
     TOKYO INSTITUTE OF TECHNOLOGY: HIROYA NAKATA
     NAGOYA UNIVERSITY: YOSHIO NISHIMOTO, STEPHAN IRLE
     MOSCOW STATE UNIVERSITY: VLADIMIR MIRONOV
     A.N.NESMEYANOV INSTITUTE OF ORGANOELEMENT COMPOUNDS OF RUSSIAN ACADEMY OF SCIENCES:
          IGOR S. GERASIMOV

 EXECUTION OF GAMESS BEGUN Sat Nov 13 22:01:27 2021

            ECHO OF THE FIRST FEW INPUT CARDS -
 INPUT CARD>!                                                                               
 INPUT CARD>!   GAMESS Calculation input file                                               
 INPUT CARD>!                                                                               
 INPUT CARD>!                                                                               
 INPUT CARD> $CONTRL SCFTYP=RHF MAXIT=200 RUNTYP=OPTIMIZE                                   
 INPUT CARD>         COORD=UNIQUE MULT=1                                                    
 INPUT CARD>         ICHARG=1                                                               
 INPUT CARD>         DFTTYP=B3LYP                                                           
 INPUT CARD>         MOLPLT=.FALSE. PLTORB=.FALSE.  $END                                    
 INPUT CARD> $SYSTEM TIMLIM=2879 MWORDS=250  $END                                           
 INPUT CARD>                                                                                
 INPUT CARD> $STATPT OPTTOL=0.0005 NSTEP=999 $END                                           
 INPUT CARD> $STATPT IHREP=0  $END                                                          
 INPUT CARD>                                                                                
 INPUT CARD> $DFT    METHOD=GRID  NLEB=590  $END                                            
 INPUT CARD>                                                                                
 INPUT CARD> $BASIS  GBASIS=N31 NGAUSS=6                                                    
 INPUT CARD>         NDFUNC=1   NPFUNC=0  $END                                              
 INPUT CARD>                                                                                
 INPUT CARD> $SCF    DIRSCF=.T. $END                                                        
 INPUT CARD> $GUESS  GUESS=HUCKEL  $END                                                     
 INPUT CARD>                                                                                
 INPUT CARD> $DATA                                                                          
 INPUT CARD>                                                                                
 INPUT CARD>  C1                                                                            
 INPUT CARD>C     6.0     0.74914     0.10468    -0.86037                                   
 INPUT CARD>C     6.0     1.24154     1.45172    -0.43400                                   
 INPUT CARD>C     6.0     0.02268     2.37041    -0.55025                                   
 INPUT CARD>C     6.0    -1.21150     1.47296    -0.43808                                   
 INPUT CARD>C     6.0    -0.74021     0.11834    -0.86563                                   
 INPUT CARD>H     1.0     1.35495    -0.49373    -1.53025                                   
 INPUT CARD>H     1.0    -1.34962    -0.46630    -1.54362                                   
 INPUT CARD>Br   35.0    -0.01087    -0.97583     0.54176                                   
 INPUT CARD>H     1.0     2.03369     1.80006    -1.10494                                   
 INPUT CARD>H     1.0     1.66217     1.46771     0.57887                                   
 INPUT CARD>H     1.0     0.02836     2.85855    -1.53156                                   
 INPUT CARD>H     1.0     0.02826     3.16759     0.19986                                   
 INPUT CARD>H     1.0    -1.99758     1.83562    -1.10893                                   
 INPUT CARD>H     1.0    -1.63267     1.49448     0.57436                                   
 INPUT CARD> $END                                                                           
 INPUT CARD>                                                                                
 INPUT CARD>                                                                                
 INPUT CARD>! Customizations after this line are persisted when using Do More Calculations  
  250000000 WORDS OF MEMORY AVAILABLE

     BASIS OPTIONS
     -------------
     GBASIS=N31          IGAUSS=       6      POLAR=POPN31  
     NDFUNC=       1     NFFUNC=       0     DIFFSP=       F
     NPFUNC=       0      DIFFS=       F     BASNAM=        


     RUN TITLE
     ---------
                                                                                 

 THE POINT GROUP OF THE MOLECULE IS C1      
 THE ORDER OF THE PRINCIPAL AXIS IS     0

 ATOM      ATOMIC                      COORDINATES (BOHR)
           CHARGE         X                   Y                   Z
 C           6.0     1.4156693264        0.1978165164       -1.6258635481
 C           6.0     2.3461704028        2.7433530109       -0.8201410787
 C           6.0     0.0428589854        4.4794253786       -1.0398217247
 C           6.0    -2.2894030341        2.7834907909       -0.8278511607
 C           6.0    -1.3987940734        0.2236301734       -1.6358035068
 H           1.0     2.5604842271       -0.9330144119       -2.8917531927
 H           1.0    -2.5504119875       -0.8811792281       -2.9170188292
 BR         35.0    -0.0205413215       -1.8440513106        1.0237779511
 H           1.0     3.8431168440        3.4016201615       -2.0880338329
 H           1.0     3.1410458450        2.7735697294        1.0939056825
 H           1.0     0.0535926290        5.4018762222       -2.8942287338
 H           1.0     0.0534036564        5.9858771414        0.3776806359
 H           1.0    -3.7748788386        3.4688188176       -2.0955738396
 H           1.0    -3.0852989284        2.8241576941        1.0853830183

          INTERNUCLEAR DISTANCES (ANGS.)
          ------------------------------

                1 C          2 C          3 C          4 C          5 C     

   1 C       0.0000000    1.4962506 *  2.3994689 *  2.4278855 *  1.4894219 *
   2 C       1.4962506 *  0.0000000    1.5307270 *  2.4531353 *  2.4272494 *
   3 C       2.3994689 *  1.5307270 *  0.0000000    1.5300977 *  2.3986006 *
   4 C       2.4278855 *  2.4531353 *  1.5300977 *  0.0000000    1.4966324 *
   5 C       1.4894219 *  2.4272494 *  2.3986006 *  1.4966324 *  0.0000000  
   6 H       1.0834387 *  2.2359342 *  3.3073617    3.4128244    2.2816759 *
   7 H       2.2798338 *  3.4094233    3.3040755    2.2365208 *  1.0829843 *
   8 BR      1.9264178 *  2.9006271 *  3.5200758    2.8979598 *  1.9261078 *
   9 H       2.1410737 *  1.0949899 *  2.1626700 *  3.3291072    3.2526870  
  10 H       2.1824038 *  1.0968550 *  2.1857966 *  3.0483100    3.1110785  
  11 H       2.9246914 *  2.1576873 *  1.0960302 *  2.1570375 *  2.9228263 *
  12 H       3.3204176    2.1950027 *  1.0946196 *  2.1944802 *  3.3202019  
  13 H       3.2561336    3.3308870    2.1632323 *  1.0952095 *  2.1422476 *
  14 H       3.1085387    3.0462602    2.1845330 *  1.0967598 *  2.1826171 *

                6 H          7 H          8 BR         9 H         10 H     

   1 C       1.0834387 *  2.2798338 *  1.9264178 *  2.1410737 *  2.1824038 *
   2 C       2.2359342 *  3.4094233    2.9006271 *  1.0949899 *  1.0968550 *
   3 C       3.3073617    3.3040755    3.5200758    2.1626700 *  2.1857966 *
   4 C       3.4128244    2.2365208 *  2.8979598 *  3.3291072    3.0483100  
   5 C       2.2816759 *  1.0829843 *  1.9261078 *  3.2526870    3.1110785  
   6 H       0.0000000    2.7047421 *  2.5280645 *  2.4296191 *  2.8965528 *
   7 H       2.7047421 *  0.0000000    2.5299569 *  4.0958045    4.1612783  
   8 BR      2.5280645 *  2.5299569 *  0.0000000    3.8206559    2.9616427 *
   9 H       2.4296191 *  4.0958045    3.8206559    0.0000000    1.7560466 *
  10 H       2.8965528 *  4.1612783    2.9616427 *  1.7560466 *  0.0000000  
  11 H       3.6052218    3.5991113    4.3592046    2.3073262 *  3.0095989  
  12 H       4.2612969    4.2595108    4.1576864    2.7557922 *  2.3880751 *
  13 H       4.1040028    2.4305644 *  3.8178587    4.0314288    4.0469491  
  14 H       4.1603168    2.9001060 *  2.9552884 *  4.0442086    3.2949518  

               11 H         12 H         13 H         14 H     

   1 C       2.9246914 *  3.3204176    3.2561336    3.1085387  
   2 C       2.1576873 *  2.1950027 *  3.3308870    3.0462602  
   3 C       1.0960302 *  1.0946196 *  2.1632323 *  2.1845330 *
   4 C       2.1570375 *  2.1944802 *  1.0952095 *  1.0967598 *
   5 C       2.9228263 *  3.3202019    2.1422476 *  2.1826171 *
   6 H       3.6052218    4.2612969    4.1040028    4.1603168  
   7 H       3.5991113    4.2595108    2.4305644 *  2.9001060 *
   8 BR      4.3592046    4.1576864    3.8178587    2.9552884 *
   9 H       2.3073262 *  2.7557922 *  4.0314288    4.0442086  
  10 H       3.0095989    2.3880751 *  4.0469491    3.2949518  
  11 H       0.0000000    1.7587839 *  2.3085569 *  3.0090873  
  12 H       1.7587839 *  0.0000000    2.7551956 *  2.3870978 *
  13 H       2.3085569 *  2.7551956 *  0.0000000    1.7558477 *
  14 H       3.0090873    2.3870978 *  1.7558477 *  0.0000000  

  * ... LESS THAN  3.000


     ATOMIC BASIS SET
     ----------------
 THE CONTRACTED PRIMITIVE FUNCTIONS HAVE BEEN UNNORMALIZED
 THE CONTRACTED BASIS FUNCTIONS ARE NOW NORMALIZED TO UNITY

  SHELL TYPE  PRIMITIVE        EXPONENT          CONTRACTION COEFFICIENT(S)

 C         

      1   S       1          3047.5248800    0.001834737132
      1   S       2           457.3695180    0.014037322813
      1   S       3           103.9486850    0.068842622264
      1   S       4            29.2101553    0.232184443216
      1   S       5             9.2866630    0.467941348435
      1   S       6             3.1639270    0.362311985337

      2   L       7             7.8682723   -0.119332419775    0.068999066591
      2   L       8             1.8812885   -0.160854151696    0.316423960957
      2   L       9             0.5442493    1.143456437840    0.744308290898

      3   L      10             0.1687145    1.000000000000    1.000000000000

      4   D      11             0.8000000    1.000000000000

 C         

      5   S      12          3047.5248800    0.001834737132
      5   S      13           457.3695180    0.014037322813
      5   S      14           103.9486850    0.068842622264
      5   S      15            29.2101553    0.232184443216
      5   S      16             9.2866630    0.467941348435
      5   S      17             3.1639270    0.362311985337

      6   L      18             7.8682723   -0.119332419775    0.068999066591
      6   L      19             1.8812885   -0.160854151696    0.316423960957
      6   L      20             0.5442493    1.143456437840    0.744308290898

      7   L      21             0.1687145    1.000000000000    1.000000000000

      8   D      22             0.8000000    1.000000000000

 C         

      9   S      23          3047.5248800    0.001834737132
      9   S      24           457.3695180    0.014037322813
      9   S      25           103.9486850    0.068842622264
      9   S      26            29.2101553    0.232184443216
      9   S      27             9.2866630    0.467941348435
      9   S      28             3.1639270    0.362311985337

     10   L      29             7.8682723   -0.119332419775    0.068999066591
     10   L      30             1.8812885   -0.160854151696    0.316423960957
     10   L      31             0.5442493    1.143456437840    0.744308290898

     11   L      32             0.1687145    1.000000000000    1.000000000000

     12   D      33             0.8000000    1.000000000000

 C         

     13   S      34          3047.5248800    0.001834737132
     13   S      35           457.3695180    0.014037322813
     13   S      36           103.9486850    0.068842622264
     13   S      37            29.2101553    0.232184443216
     13   S      38             9.2866630    0.467941348435
     13   S      39             3.1639270    0.362311985337

     14   L      40             7.8682723   -0.119332419775    0.068999066591
     14   L      41             1.8812885   -0.160854151696    0.316423960957
     14   L      42             0.5442493    1.143456437840    0.744308290898

     15   L      43             0.1687145    1.000000000000    1.000000000000

     16   D      44             0.8000000    1.000000000000

 C         

     17   S      45          3047.5248800    0.001834737132
     17   S      46           457.3695180    0.014037322813
     17   S      47           103.9486850    0.068842622264
     17   S      48            29.2101553    0.232184443216
     17   S      49             9.2866630    0.467941348435
     17   S      50             3.1639270    0.362311985337

     18   L      51             7.8682723   -0.119332419775    0.068999066591
     18   L      52             1.8812885   -0.160854151696    0.316423960957
     18   L      53             0.5442493    1.143456437840    0.744308290898

     19   L      54             0.1687145    1.000000000000    1.000000000000

     20   D      55             0.8000000    1.000000000000

 H         

     21   S      56            18.7311370    0.033494604338
     21   S      57             2.8253944    0.234726953484
     21   S      58             0.6401217    0.813757326146

     22   S      59             0.1612778    1.000000000000

 H         

     23   S      60            18.7311370    0.033494604338
     23   S      61             2.8253944    0.234726953484
     23   S      62             0.6401217    0.813757326146

     24   S      63             0.1612778    1.000000000000

 BR        

     25   S      64        113718.2000000    0.001717696020
     25   S      65         17074.4400000    0.013167440157
     25   S      66          3889.5760000    0.065045530775
     25   S      67          1097.0960000    0.226950502703
     25   S      68           352.0624000    0.476835705678
     25   S      69           120.7002000    0.358367704268

     26   L      70          2471.1380000    0.002243686934    0.003790181843
     26   L      71           589.3838000    0.029948529125    0.029959788758
     26   L      72           191.8738000    0.125600896330    0.131822794533
     26   L      73            72.9533900   -0.000983278571    0.343270785764
     26   L      74            30.0583900   -0.601314082428    0.464234480747
     26   L      75            12.5292700   -0.491398285640    0.207938691376

     27   L      76           109.6411000   -0.005975683203   -0.006907482641
     27   L      77            38.5894800    0.055421221885   -0.030414318419
     27   L      78            16.3781800    0.268120009121    0.046027247607
     27   L      79             7.2218360   -0.154360605251    0.365068881019
     27   L      80             3.2636970   -0.720630624515    0.494923174267
     27   L      81             1.4654990   -0.331643711282    0.209039389131

     28   L      82             2.1036510    0.302902925312   -0.028267138833
     28   L      83             0.7547050   -0.215265917988    0.350306485538
     28   L      84             0.3005140   -0.963394180505    0.718244570349

     29   L      85             0.1090710    1.000000000000    1.000000000000

     30   D      86            62.2551400    0.077042284602
     30   D      87            17.3128400    0.370738374024
     30   D      88             5.6079150    0.709762750271

     31   D      89             1.7464860    1.000000000000

     32   D      90             0.4366000    1.000000000000

 H         

     33   S      91            18.7311370    0.033494604338
     33   S      92             2.8253944    0.234726953484
     33   S      93             0.6401217    0.813757326146

     34   S      94             0.1612778    1.000000000000

 H         

     35   S      95            18.7311370    0.033494604338
     35   S      96             2.8253944    0.234726953484
     35   S      97             0.6401217    0.813757326146

     36   S      98             0.1612778    1.000000000000

 H         

     37   S      99            18.7311370    0.033494604338
     37   S     100             2.8253944    0.234726953484
     37   S     101             0.6401217    0.813757326146

     38   S     102             0.1612778    1.000000000000

 H         

     39   S     103            18.7311370    0.033494604338
     39   S     104             2.8253944    0.234726953484
     39   S     105             0.6401217    0.813757326146

     40   S     106             0.1612778    1.000000000000

 H         

     41   S     107            18.7311370    0.033494604338
     41   S     108             2.8253944    0.234726953484
     41   S     109             0.6401217    0.813757326146

     42   S     110             0.1612778    1.000000000000

 H         

     43   S     111            18.7311370    0.033494604338
     43   S     112             2.8253944    0.234726953484
     43   S     113             0.6401217    0.813757326146

     44   S     114             0.1612778    1.000000000000

 TOTAL NUMBER OF BASIS SET SHELLS             =   44
 NUMBER OF CARTESIAN GAUSSIAN BASIS FUNCTIONS =  126
 NUMBER OF ELECTRONS                          =   72
 CHARGE OF MOLECULE                           =    1
 SPIN MULTIPLICITY                            =    1
 NUMBER OF OCCUPIED ORBITALS (ALPHA)          =   36
 NUMBER OF OCCUPIED ORBITALS (BETA )          =   36
 TOTAL NUMBER OF ATOMS                        =   14
 THE NUCLEAR REPULSION ENERGY IS      439.0906139985

 SELECTED MURRAY-HANDY-LAMING RADIAL GRID

 LEGACY BECKE'S FUZZY CELL METHOD

 SELECTED ORIGINAL BECKE'S PARTITION FUNCTION

     LEBEDEV GRID-BASED DFT OPTIONS
     ------------------------------
     DFTTYP=B3LYP   
     NRAD  =      96     NLEB  =     590
     NRAD0 =      24     NLEB0 =     110
     SWOFF =    5.00E-03 (PURE SCF -> DFT)
     SWITCH=    3.00E-04 (COARSE -> TIGHT GRID)
     THRESH=    0.00E+00 GTHRE=    1.00E+00

 GRIMME'S EMPIRICAL DISPERSION CORRECTION= F

     $CONTRL OPTIONS
     ---------------
 SCFTYP=RHF          RUNTYP=OPTIMIZE     EXETYP=RUN     
 MPLEVL=       0     CITYP =NONE         CCTYP =NONE         VBTYP =NONE    
 DFTTYP=B3LYP        TDDFT =NONE    
 MULT  =       1     ICHARG=       1     NZVAR =       0     COORD =UNIQUE  
 PP    =NONE         RELWFN=NONE         LOCAL =NONE         NUMGRD=       F
 ISPHER=      -1     NOSYM =       0     MAXIT =     200     UNITS =ANGS    
 PLTORB=       F     MOLPLT=       F     AIMPAC=       F     FRIEND=        
 NPRINT=       7     IREST =       0     GEOM  =INPUT   
 NORMF =       0     NORMP =       0     ITOL  =      20     ICUT  =       9
 INTTYP=BEST         GRDTYP=BEST         QMTTOL= 1.0E-06

     $SYSTEM OPTIONS
     ---------------
  REPLICATED MEMORY=   250000000 WORDS (ON EVERY NODE).
 DISTRIBUTED MEMDDI=           0 MILLION WORDS IN AGGREGATE,
 MEMDDI DISTRIBUTED OVER   1 PROCESSORS IS           0 WORDS/PROCESSOR.
 TOTAL MEMORY REQUESTED ON EACH PROCESSOR=   250000000 WORDS.
 TIMLIM=        2879.00 MINUTES, OR       2.0 DAYS.
 PARALL= F  BALTYP=  DLB     KDIAG=    0  COREFL= F
 MXSEQ2=     300 MXSEQ3=     150  mem10=         0

          ----------------
          PROPERTIES INPUT
          ----------------

     MOMENTS            FIELD           POTENTIAL          DENSITY
 IEMOM =       1   IEFLD =       0   IEPOT =       0   IEDEN =       0
 WHERE =COMASS     WHERE =NUCLEI     WHERE =NUCLEI     WHERE =NUCLEI  
 OUTPUT=BOTH       OUTPUT=BOTH       OUTPUT=BOTH       OUTPUT=BOTH    
 IEMINT=       0   IEFINT=       0                     IEDINT=       0
                                                       MORB  =       0
          EXTRAPOLATION IN EFFECT
          DIIS IN EFFECT
 ORBITAL PRINTING OPTION: NPREO=     1   126     2     1

     -------------------------------
     INTEGRAL TRANSFORMATION OPTIONS
     -------------------------------
     NWORD  =            0
     CUTOFF = 1.0E-09     MPTRAN =       0
     DIRTRF =       T     AOINTS =DUP     

          ----------------------
          INTEGRAL INPUT OPTIONS
          ----------------------
 NOPK  =       1 NORDER=       0 SCHWRZ=       T

     ------------------------------------------
     THE POINT GROUP IS C1 , NAXIS= 0, ORDER= 1
     ------------------------------------------

     DIMENSIONS OF THE SYMMETRY SUBSPACES ARE
 A   =  126

 ..... DONE SETTING UP THE RUN .....
 STEP CPU TIME =     0.04 TOTAL CPU TIME =          0.0 (      0.0 MIN)
 TOTAL WALL CLOCK TIME=          0.1 SECONDS, CPU UTILIZATION IS    66.67%


          -----------------------------
          STATIONARY POINT LOCATION RUN
          -----------------------------

 OBTAINING INITIAL HESSIAN, HESS=GUESS   
 CARTESIAN COORDINATE OPTIMIZATION USING BADGER'S RULE FORCE CONSTANT GUESS

          PARAMETERS CONTROLLING GEOMETRY SEARCH ARE
          METHOD =QA                  UPHESS =BFGS    
          NNEG   =         0          NFRZ   =         0
          NSTEP  =       999          IFOLOW =         1
          HESS   =GUESS               RESTAR =         F
          IHREP  =         0          HSSEND =         F
          NPRT   =         0          NPUN   =         0
          OPTTOL = 5.000E-04          RMIN   = 1.500E-03
          RMAX   = 1.000E-01          RLIM   = 7.000E-02
          DXMAX  = 3.000E-01          PURIFY =         F
          MOVIE  =         F          TRUPD  =         T
          TRMAX  = 5.000E-01          TRMIN  = 5.000E-02
          ITBMAT =         5          STPT   =         F
          STSTEP = 1.000E-02          PROJCT=          T

 BEGINNING GEOMETRY SEARCH POINT NSERCH=   0 ...

 COORDINATES OF ALL ATOMS ARE (ANGS)
   ATOM   CHARGE       X              Y              Z
 ------------------------------------------------------------
 C           6.0   0.7491400000   0.1046800000  -0.8603700000
 C           6.0   1.2415400000   1.4517200000  -0.4340000000
 C           6.0   0.0226800000   2.3704100000  -0.5502500000
 C           6.0  -1.2115000000   1.4729600000  -0.4380800000
 C           6.0  -0.7402100000   0.1183400000  -0.8656300000
 H           1.0   1.3549500000  -0.4937300000  -1.5302500000
 H           1.0  -1.3496200000  -0.4663000000  -1.5436200000
 BR         35.0  -0.0108700000  -0.9758300000   0.5417600000
 H           1.0   2.0336900000   1.8000600000  -1.1049400000
 H           1.0   1.6621700000   1.4677100000   0.5788700000
 H           1.0   0.0283600000   2.8585500000  -1.5315600000
 H           1.0   0.0282600000   3.1675900000   0.1998600000
 H           1.0  -1.9975800000   1.8356200000  -1.1089300000
 H           1.0  -1.6326700000   1.4944800000   0.5743600000

          ********************
          1 ELECTRON INTEGRALS
          ********************
 ...... END OF ONE-ELECTRON INTEGRALS ......
 STEP CPU TIME =     0.03 TOTAL CPU TIME =          0.1 (      0.0 MIN)
 TOTAL WALL CLOCK TIME=          0.1 SECONDS, CPU UTILIZATION IS    77.78%

          -------------
          GUESS OPTIONS
          -------------
          GUESS =HUCKEL            NORB  =       0          NORDER=       0
          MIX   =       F          PRTMO =       F          PUNMO =       F
          TOLZ  = 1.0E-08          TOLE  = 1.0E-05
          SYMDEN=       F          PURIFY=       F

 INITIAL GUESS ORBITALS GENERATED BY HUCKEL   ROUTINE.
 HUCKEL GUESS REQUIRES    137046 WORDS.

 SYMMETRIES FOR INITIAL GUESS ORBITALS FOLLOW.   BOTH SET(S).
    36 ORBITALS ARE OCCUPIED (   19 CORE ORBITALS).
    20=A       21=A       22=A       23=A       24=A       25=A       26=A   
    27=A       28=A       29=A       30=A       31=A       32=A       33=A   
    34=A       35=A       36=A       37=A       38=A       39=A       40=A   
    41=A       42=A       43=A       44=A       45=A       46=A   
 ...... END OF INITIAL ORBITAL SELECTION ......
 STEP CPU TIME =     0.03 TOTAL CPU TIME =          0.1 (      0.0 MIN)
 TOTAL WALL CLOCK TIME=          0.1 SECONDS, CPU UTILIZATION IS    83.33%

                    ----------------------
                    AO INTEGRAL TECHNOLOGY
                    ----------------------
     S,P,L SHELL ROTATED AXIS INTEGRALS, REPROGRAMMED BY
        KAZUYA ISHIMURA (IMS) AND JOSE SIERRA (SYNSTAR).
     S,P,D,L SHELL ROTATED AXIS INTEGRALS PROGRAMMED BY
        KAZUYA ISHIMURA (INSTITUTE FOR MOLECULAR SCIENCE).
     S,P,D,F,G SHELL TO TOTAL QUARTET ANGULAR MOMENTUM SUM 5,
        ERIC PROGRAM BY GRAHAM FLETCHER (ELORET AND NASA ADVANCED
        SUPERCOMPUTING DIVISION, AMES RESEARCH CENTER).
     S,P,D,F,G,L SHELL GENERAL RYS QUADRATURE PROGRAMMED BY
        MICHEL DUPUIS (PACIFIC NORTHWEST NATIONAL LABORATORY).

          --------------------
          2 ELECTRON INTEGRALS
          --------------------

 DIRECT SCF METHOD SKIPS INTEGRAL STORAGE ON DISK.
 DIRECT TRANSFORMATION SKIPS AO INTEGRAL STORAGE ON DISK.
  ...... END OF TWO-ELECTRON INTEGRALS .....
 STEP CPU TIME =     0.02 TOTAL CPU TIME =          0.1 (      0.0 MIN)
 TOTAL WALL CLOCK TIME=          0.1 SECONDS, CPU UTILIZATION IS    92.31%

          --------------------------
             R-B3LYP SCF CALCULATION
          --------------------------

     NUCLEAR ENERGY =       439.0906139985
     MAXIT =  200     NPUNCH=    2
     EXTRAP=T  DAMP=F  SHIFT=F  RSTRCT=F  DIIS=T  DEM=F  SOSCF=F
         DENSITY MATRIX CONVERGENCE THRESHOLD=  2.00E-05
     COARSE -> FINE DFT GRID SWITCH THRESHOLD=  3.00E-04 (SWITCH IN $DFT)
                   HF -> DFT SWITCH THRESHOLD=  5.00E-03 (SWOFF IN $DFT)
     MEMORY REQUIRED FOR RHF ITERS=   1062582 WORDS.

 DIRECT SCF CALCULATION, SCHWRZ=T   FDIFF=T,  DIRTHR=  0.00E+00 NITDIR=10
 SCHWARZ INEQUALITY OVERHEAD:      7944 INTEGRALS, T=        0.01

 DFT CODE IS SWITCHING FROM THE FINE GRID NRAD= 96,  NLEB=  590
                      TO THE COARSE GRID NRAD0= 24, NLEB0=  110

     EXCHANGE FUNCTIONAL   =B88&HFX   
     CORRELATION FUNCTIONAL=LYP88&VWN5
     DFT THRESHOLD         =.504E-08
     GRID CHANGE THRESHOLD =.300E-03
 FOR AN EULER-MACLAURIN QUADRATURE USING  96 RADIAL POINTS:
 SMALLEST GAUSSIAN PRIMITIVE EXPONENT=        0.1090710000 OF TYPE -P-
 ON ATOM NUMBER   8 HAS RADIAL NORMALIZATION=  1.000000
  LARGEST GAUSSIAN PRIMITIVE EXPONENT=   113718.2000000000 OF TYPE -S-
 ON ATOM NUMBER   8 HAS RADIAL NORMALIZATION=  1.000010
 DFT IS SWITCHED OFF, PERFORMING PURE SCF UNTIL SWOFF THRESHOLD IS REACHED.

                                                                                   NONZERO     BLOCKS
 ITER EX DEM     TOTAL ENERGY        E CHANGE  DENSITY CHANGE    DIIS ERROR      INTEGRALS    SKIPPED
   1  0  0    -2764.4395649580 -2764.4395649580   0.750680831   9.354873631       27194056      86957
          * * *   INITIATING DIIS PROCEDURE   * * *
   2  1  0    -2765.7030173111    -1.2634523531   0.160096321   0.087036438       27173614      91521
   3  2  0    -2765.7664715190    -0.0634542078   0.043816623   0.048330532       27037163      99174
   4  3  0    -2765.7925757680    -0.0261042490   0.023557827   0.008309412       26867185     106158
   5  4  0    -2765.7937973764    -0.0012216085   0.007977887   0.002906100       26309675     118937
   6  5  0    -2765.7939307853    -0.0001334089   0.002528893   0.000743656       25854971     129353
 CONVERGED TO SWOFF, SO DFT CALCULATION IS NOW SWITCHED ON.
          * * *   INITIATING DIIS PROCEDURE   * * *
   7  6  0    -2768.6020933679    -2.8081625825   0.125673265   0.331904717       27189442      87852
   8  7  0    -2768.6295712847    -0.0274779169   0.094389159   0.025571413       27045218      99221
   9  8  0    -2768.6214325345     0.0081387503   0.078493492   0.032403317       26868019     104861
  10  9  0    -2768.6361565443    -0.0147240098   0.015700429   0.005471428       26762114     108568
  11 10  0    -2768.6364613643    -0.0003048201   0.001138741   0.000873222       25968618     127105
  12 11  0    -2768.6364686834    -0.0000073191   0.000238718   0.000193305       25059421     144476
 DFT CODE IS SWITCHING BACK TO THE FINE GRID
          * * *   INITIATING DIIS PROCEDURE   * * *
  13 12  0    -2768.6300747045     0.0063939789   0.007083035   0.006361912       27188552      87119
  14 13  0    -2768.6302328666    -0.0001581621   0.006031270   0.001206222       26245872     120350
  15 14  0    -2768.6302195182     0.0000133485   0.003502086   0.001510454       25582061     135649
  16 15  0    -2768.6302477442    -0.0000282260   0.000293239   0.000167331       25302988     141611
  17 16  0    -2768.6302479832    -0.0000002390   0.000105701   0.000034463       23998297     169116
  18 17  0    -2768.6302480008    -0.0000000176   0.000033498   0.000007545       22799255     192384
  19 18  0    -2768.6302480015    -0.0000000007   0.000004042   0.000004069       21396496     219988
  20 19  0    -2768.6302480018    -0.0000000003   0.000001317   0.000000452       20139984     241364

          -----------------
          DENSITY CONVERGED
          -----------------
     TIME TO FORM FOCK OPERATORS=     131.6 SECONDS (       6.6 SEC/ITER)
     FOCK TIME ON FIRST ITERATION=       1.8, LAST ITERATION=      13.4
     TIME TO SOLVE SCF EQUATIONS=       0.3 SECONDS (       0.0 SEC/ITER)

 FINAL R-B3LYP ENERGY IS    -2768.6302480018 AFTER  20 ITERATIONS
 DFT EXCHANGE + CORRELATION ENERGY =       -97.3229924599
 TOTAL ELECTRON NUMBER             =        71.9999874628

          ------------
          EIGENVECTORS
          ------------

                      1          2          3          4          5
                 -483.1178   -62.7765   -56.5973   -56.5951   -56.5928
                     A          A          A          A          A   
    1  C  1  S    0.000001   0.000002   0.000080  -0.000071  -0.000021
    2  C  1  S    0.000016   0.000012   0.000529  -0.000394  -0.000090
    3  C  1  X    0.000002  -0.000005  -0.000120  -0.000029   0.000074
    4  C  1  Y    0.000005   0.000003   0.000071  -0.000025  -0.000029
    5  C  1  Z   -0.000006  -0.000001   0.000005  -0.000027  -0.000046
    6  C  1  S   -0.000023  -0.000010  -0.001093   0.002634   0.000216
    7  C  1  X    0.000003   0.000015   0.000489  -0.001101  -0.000222
    8  C  1  Y    0.000001  -0.000028  -0.000209   0.000476   0.000387
    9  C  1  Z   -0.000011  -0.000016  -0.000813   0.000716   0.000309
   10  C  1 XX   -0.000001   0.000001   0.000074  -0.000032  -0.000032
   11  C  1 YY   -0.000006  -0.000002   0.000037  -0.000051  -0.000039
   12  C  1 ZZ   -0.000009  -0.000003  -0.000048  -0.000055  -0.000008
   13  C  1 XY   -0.000004  -0.000004  -0.000123   0.000045   0.000017
   14  C  1 XZ    0.000005   0.000002   0.000106  -0.000071   0.000007
   15  C  1 YZ    0.000007   0.000005   0.000189  -0.000061   0.000013
   16  C  2  S   -0.000000  -0.000002  -0.000039   0.000016   0.000018
   17  C  2  S   -0.000003  -0.000010  -0.000192   0.000089   0.000103
   18  C  2  X   -0.000001   0.000002  -0.000004   0.000008  -0.000014
   19  C  2  Y   -0.000002   0.000001  -0.000012   0.000039   0.000002
   20  C  2  Z    0.000001  -0.000002  -0.000051   0.000027   0.000007
   21  C  2  S    0.000008   0.000058   0.001352  -0.000867  -0.000638
   22  C  2  X   -0.000001  -0.000038  -0.000571   0.000378   0.000439
   23  C  2  Y   -0.000008  -0.000019  -0.000309   0.000429   0.000242
   24  C  2  Z   -0.000001   0.000017   0.000534  -0.000137  -0.000101
   25  C  2 XX    0.000001  -0.000001  -0.000014   0.000018  -0.000002
   26  C  2 YY    0.000002  -0.000001  -0.000041  -0.000011   0.000002
   27  C  2 ZZ    0.000001  -0.000003  -0.000064   0.000015   0.000034
   28  C  2 XY    0.000001   0.000002   0.000032  -0.000040  -0.000026
   29  C  2 XZ   -0.000000   0.000001   0.000016  -0.000026  -0.000007
   30  C  2 YZ   -0.000001  -0.000000  -0.000015   0.000029   0.000014
   31  C  3  S   -0.000001   0.000000   0.000003  -0.000000   0.000002
   32  C  3  S   -0.000002   0.000002   0.000027  -0.000001  -0.000009
   33  C  3  X   -0.000000   0.000000   0.000001   0.000040  -0.000000
   34  C  3  Y    0.000000   0.000002   0.000039  -0.000000  -0.000027
   35  C  3  Z   -0.000000   0.000002   0.000046   0.000000  -0.000010
   36  C  3  S    0.000010  -0.000041  -0.000738   0.000006   0.000379
   37  C  3  X   -0.000000   0.000000   0.000002  -0.000052  -0.000001
   38  C  3  Y   -0.000000   0.000018   0.000245  -0.000002  -0.000175
   39  C  3  Z    0.000002  -0.000028  -0.000612   0.000000   0.000190
   40  C  3 XX   -0.000001   0.000001   0.000001  -0.000000   0.000002
   41  C  3 YY   -0.000000  -0.000002  -0.000003   0.000000   0.000014
   42  C  3 ZZ   -0.000002  -0.000001  -0.000020  -0.000000   0.000020
   43  C  3 XY    0.000000  -0.000000  -0.000000  -0.000001   0.000000
   44  C  3 XZ   -0.000000   0.000000   0.000000   0.000017  -0.000000
   45  C  3 YZ   -0.000000   0.000001   0.000012  -0.000000  -0.000008
   46  C  4  S   -0.000000  -0.000002  -0.000039  -0.000015   0.000018
   47  C  4  S   -0.000003  -0.000010  -0.000193  -0.000088   0.000103
   48  C  4  X    0.000001  -0.000002   0.000004   0.000008   0.000014
   49  C  4  Y   -0.000002   0.000001  -0.000013  -0.000039   0.000002
   50  C  4  Z    0.000001  -0.000002  -0.000052  -0.000026   0.000007
   51  C  4  S    0.000008   0.000059   0.001363   0.000863  -0.000638
   52  C  4  X    0.000001   0.000037   0.000567   0.000365  -0.000435
   53  C  4  Y   -0.000008  -0.000020  -0.000326  -0.000437   0.000253
   54  C  4  Z   -0.000001   0.000017   0.000539   0.000136  -0.000103
   55  C  4 XX    0.000001  -0.000001  -0.000015  -0.000019  -0.000001
   56  C  4 YY    0.000002  -0.000001  -0.000040   0.000013   0.000000
   57  C  4 ZZ    0.000001  -0.000003  -0.000064  -0.000015   0.000034
   58  C  4 XY   -0.000001  -0.000002  -0.000033  -0.000039   0.000026
   59  C  4 XZ    0.000000  -0.000001  -0.000016  -0.000026   0.000007
   60  C  4 YZ   -0.000001  -0.000000  -0.000015  -0.000029   0.000014
   61  C  5  S    0.000001   0.000002   0.000081   0.000071  -0.000021
   62  C  5  S    0.000016   0.000012   0.000531   0.000394  -0.000092
   63  C  5  X   -0.000002   0.000005   0.000121  -0.000029  -0.000074
   64  C  5  Y    0.000005   0.000003   0.000070   0.000026  -0.000028
   65  C  5  Z   -0.000006  -0.000001   0.000007   0.000027  -0.000047
   66  C  5  S   -0.000023  -0.000011  -0.001109  -0.002633   0.000224
   67  C  5  X   -0.000003  -0.000016  -0.000495  -0.001103   0.000230
   68  C  5  Y    0.000000  -0.000029  -0.000210  -0.000455   0.000384
   69  C  5  Z   -0.000012  -0.000016  -0.000829  -0.000725   0.000317
   70  C  5 XX   -0.000001   0.000001   0.000080   0.000035  -0.000033
   71  C  5 YY   -0.000006  -0.000002   0.000033   0.000050  -0.000038
   72  C  5 ZZ   -0.000009  -0.000003  -0.000049   0.000054  -0.000008
   73  C  5 XY    0.000004   0.000004   0.000121   0.000045  -0.000018
   74  C  5 XZ   -0.000004  -0.000002  -0.000102  -0.000069  -0.000007
   75  C  5 YZ    0.000008   0.000005   0.000192   0.000062   0.000013
   76  H  6  S    0.000001  -0.000005  -0.000061   0.000014   0.000026
   77  H  6  S    0.000003  -0.000003  -0.000168   0.000166   0.000355
   78  H  7  S    0.000001  -0.000005  -0.000062  -0.000014   0.000026
   79  H  7  S    0.000003  -0.000003  -0.000176  -0.000166   0.000357
   80  BR 8  S    0.994958   0.311905  -0.000266   0.000000  -0.000009
   81  BR 8  S   -0.020281   1.027672  -0.000893   0.000000  -0.000023
   82  BR 8  X    0.000000  -0.000007  -0.007955   0.996105   0.003410
   83  BR 8  Y    0.000004  -0.000501  -0.596695  -0.007496   0.797611
   84  BR 8  Z   -0.000005   0.000707   0.797575   0.004327   0.596773
   85  BR 8  S   -0.030436  -0.024014   0.000380  -0.000000  -0.000046
   86  BR 8  X   -0.000000  -0.000000  -0.000084   0.010409   0.000036
   87  BR 8  Y   -0.000004  -0.000028  -0.006322  -0.000078   0.008308
   88  BR 8  Z    0.000005   0.000037   0.008408   0.000045   0.006183
   89  BR 8  S   -0.000658  -0.000064   0.001644  -0.000000  -0.000285
   90  BR 8  X    0.000000   0.000000   0.000021  -0.002179  -0.000008
   91  BR 8  Y    0.000012   0.000027   0.001635   0.000017  -0.001716
   92  BR 8  Z   -0.000012  -0.000024  -0.001986  -0.000009  -0.001095
   93  BR 8  S   -0.000095  -0.000154   0.000112  -0.000001   0.000309
   94  BR 8  X    0.000000  -0.000000  -0.000006   0.000764   0.000005
   95  BR 8  Y    0.000004  -0.000034  -0.000445  -0.000006   0.000843
   96  BR 8  Z   -0.000007   0.000034   0.000503   0.000004   0.000436
   97  BR 8 XX   -0.014694  -0.020001   0.000199   0.000000  -0.000031
   98  BR 8 YY   -0.014693  -0.019986   0.000170  -0.000000   0.000017
   99  BR 8 ZZ   -0.014693  -0.020014   0.000145  -0.000000  -0.000080
  100  BR 8 XY    0.000000  -0.000000  -0.000000   0.000018   0.000001
  101  BR 8 XZ   -0.000000   0.000000   0.000000  -0.000033   0.000000
  102  BR 8 YZ   -0.000002   0.000055   0.000028   0.000000  -0.000019
  103  BR 8 XX   -0.002772  -0.001884   0.000377   0.000001  -0.000081
  104  BR 8 YY   -0.002773  -0.001889   0.000351  -0.000001  -0.000087
  105  BR 8 ZZ   -0.002775  -0.001880   0.000336  -0.000000  -0.000075
  106  BR 8 XY   -0.000000   0.000000  -0.000000   0.000044  -0.000000
  107  BR 8 XZ    0.000000  -0.000000   0.000001  -0.000035   0.000000
  108  BR 8 YZ    0.000005  -0.000016   0.000084   0.000000   0.000005
  109  BR 8 XX   -0.000076   0.000081   0.000778  -0.000004  -0.000220
  110  BR 8 YY   -0.000071   0.000085   0.000929   0.000003  -0.000266
  111  BR 8 ZZ   -0.000066   0.000079   0.000987   0.000001  -0.000207
  112  BR 8 XY    0.000000  -0.000000   0.000002  -0.000191  -0.000000
  113  BR 8 XZ   -0.000000   0.000000  -0.000004   0.000175  -0.000000
  114  BR 8 YZ   -0.000014   0.000005  -0.000342  -0.000002   0.000025
  115  H  9  S   -0.000000   0.000002   0.000031  -0.000017  -0.000010
  116  H  9  S   -0.000002   0.000011   0.000148  -0.000058  -0.000135
  117  H 10  S   -0.000001  -0.000008  -0.000117   0.000084   0.000073
  118  H 10  S    0.000005   0.000007  -0.000240  -0.000038  -0.000142
  119  H 11  S   -0.000000  -0.000001  -0.000020  -0.000000   0.000000
  120  H 11  S   -0.000001  -0.000012  -0.000249  -0.000000   0.000098
  121  H 12  S   -0.000000   0.000004   0.000076  -0.000000  -0.000030
  122  H 12  S   -0.000002   0.000007   0.000192   0.000000  -0.000028
  123  H 13  S   -0.000000   0.000002   0.000031   0.000017  -0.000010
  124  H 13  S   -0.000002   0.000011   0.000150   0.000056  -0.000135
  125  H 14  S   -0.000001  -0.000008  -0.000118  -0.000084   0.000073
  126  H 14  S    0.000005   0.000007  -0.000243   0.000037  -0.000144

                      6          7          8          9         10
                  -10.4665   -10.4662   -10.3725   -10.3724   -10.3526
                     A          A          A          A          A   
    1  C  1  S    0.735419  -0.667374  -0.001567  -0.000149  -0.000002
    2  C  1  S    0.037282  -0.033855  -0.000341  -0.000173  -0.000184
    3  C  1  X   -0.000607   0.000514  -0.000028   0.000138  -0.000063
    4  C  1  Y   -0.000357   0.000262  -0.000144  -0.000004  -0.000082
    5  C  1  Z    0.000827  -0.000574  -0.000069  -0.000055   0.000009
    6  C  1  S   -0.011092   0.017551   0.005830   0.000056  -0.000076
    7  C  1  X    0.000969  -0.003986   0.000553   0.000003   0.000102
    8  C  1  Y   -0.000654   0.002008   0.002706   0.000333   0.000014
    9  C  1  Z   -0.002584   0.001803   0.000753   0.000135  -0.000141
   10  C  1 XX   -0.006821   0.005659  -0.000195   0.000007  -0.000011
   11  C  1 YY   -0.006565   0.006031  -0.000464  -0.000017   0.000055
   12  C  1 ZZ   -0.006619   0.005957  -0.000174  -0.000076  -0.000092
   13  C  1 XY   -0.000103   0.000015  -0.000122  -0.000013  -0.000063
   14  C  1 XZ   -0.000090   0.000042  -0.000080  -0.000036   0.000027
   15  C  1 YZ    0.000142  -0.000062  -0.000101   0.000012   0.000002
   16  C  2  S    0.000906  -0.000880   0.988161   0.098014  -0.005490
   17  C  2  S   -0.000413   0.000204   0.050410   0.004908  -0.000597
   18  C  2  X    0.000011  -0.000041  -0.000260   0.000042   0.000067
   19  C  2  Y    0.000069   0.000048  -0.000395  -0.000118  -0.000030
   20  C  2  Z   -0.000055   0.000009  -0.000119  -0.000068   0.000023
   21  C  2  S    0.004477  -0.004561  -0.021046  -0.002519   0.005695
   22  C  2  X   -0.001106   0.001370   0.002240   0.000523  -0.002069
   23  C  2  Y   -0.001527   0.001655   0.000791   0.000122   0.001348
   24  C  2  Z    0.001047   0.000274   0.000695   0.000433  -0.000273
   25  C  2 XX   -0.000083   0.000168  -0.009006  -0.000856  -0.000302
   26  C  2 YY   -0.000297   0.000215  -0.008968  -0.000912  -0.000261
   27  C  2 ZZ   -0.000185   0.000066  -0.008807  -0.000924  -0.000066
   28  C  2 XY    0.000017   0.000003   0.000067   0.000028   0.000171
   29  C  2 XZ   -0.000001  -0.000030  -0.000036  -0.000026  -0.000015
   30  C  2 YZ   -0.000081   0.000103  -0.000010  -0.000005   0.000006
   31  C  3  S   -0.000064  -0.000004   0.004662   0.005719   0.993003
   32  C  3  S   -0.000245  -0.000015  -0.000112  -0.000133   0.050417
   33  C  3  X   -0.000006   0.000153  -0.000022   0.000019  -0.000004
   34  C  3  Y    0.000097   0.000004   0.000024   0.000029  -0.000340
   35  C  3  Z    0.000174   0.000009  -0.000028  -0.000034  -0.000039
   36  C  3  S   -0.000523  -0.000009   0.005409   0.006595  -0.020450
   37  C  3  X   -0.000008   0.000140   0.002042  -0.001703   0.000018
   38  C  3  Y   -0.000127  -0.000017  -0.001642  -0.001964   0.002106
   39  C  3  Z   -0.001807  -0.000092   0.000184   0.000223   0.000146
   40  C  3 XX   -0.000051  -0.000003  -0.000347  -0.000428  -0.009048
   41  C  3 YY    0.000092   0.000004  -0.000268  -0.000324  -0.008970
   42  C  3 ZZ   -0.000105  -0.000006  -0.000154  -0.000187  -0.008842
   43  C  3 XY    0.000002  -0.000000   0.000137  -0.000111   0.000001
   44  C  3 XZ    0.000000   0.000012  -0.000024   0.000018   0.000000
   45  C  3 YZ    0.000040   0.000002   0.000002   0.000002   0.000055
   46  C  4  S    0.000814   0.000962  -0.098069   0.988155  -0.005516
   47  C  4  S   -0.000393  -0.000241  -0.005092   0.050390  -0.000597
   48  C  4  X   -0.000006  -0.000042  -0.000094   0.000242  -0.000068
   49  C  4  Y    0.000072  -0.000041  -0.000037  -0.000415  -0.000029
   50  C  4  Z   -0.000056  -0.000014  -0.000044  -0.000128   0.000022
   51  C  4  S    0.004036   0.004957   0.001657  -0.021122   0.005688
   52  C  4  X    0.000946   0.001427  -0.000074  -0.002289   0.002090
   53  C  4  Y   -0.001387  -0.001820  -0.000032   0.000837   0.001315
   54  C  4  Z    0.001080  -0.000167   0.000288   0.000748  -0.000262
   55  C  4 XX   -0.000068  -0.000175   0.000929  -0.009000  -0.000307
   56  C  4 YY   -0.000274  -0.000242   0.000868  -0.008971  -0.000255
   57  C  4 ZZ   -0.000178  -0.000083   0.000824  -0.008817  -0.000065
   58  C  4 XY   -0.000021   0.000000  -0.000015  -0.000070  -0.000170
   59  C  4 XZ    0.000004  -0.000032   0.000019   0.000040   0.000014
   60  C  4 YZ   -0.000072  -0.000110  -0.000003  -0.000012   0.000005
   61  C  5  S    0.667276   0.735509   0.000162  -0.001562  -0.000002
   62  C  5  S    0.033830   0.037312  -0.000102  -0.000367  -0.000188
   63  C  5  X    0.000543   0.000561  -0.000140  -0.000002   0.000061
   64  C  5  Y   -0.000340  -0.000307   0.000027  -0.000141  -0.000083
   65  C  5  Z    0.000772   0.000655  -0.000041  -0.000079   0.000009
   66  C  5  S   -0.009372  -0.018546  -0.001094   0.005713  -0.000049
   67  C  5  X   -0.000584  -0.004084   0.000098  -0.000502  -0.000093
   68  C  5  Y   -0.000460  -0.001979  -0.000204   0.002722   0.000021
   69  C  5  Z   -0.002424  -0.002077  -0.000014   0.000773  -0.000144
   70  C  5 XX   -0.006239  -0.006294   0.000044  -0.000187  -0.000010
   71  C  5 YY   -0.005954  -0.006639   0.000075  -0.000462   0.000053
   72  C  5 ZZ   -0.006007  -0.006568  -0.000040  -0.000185  -0.000094
   73  C  5 XY    0.000106   0.000017  -0.000011   0.000117   0.000065
   74  C  5 XZ    0.000087   0.000055   0.000020   0.000085  -0.000026
   75  C  5 YZ    0.000135   0.000074   0.000031  -0.000098   0.000003
   76  H  6  S   -0.000328   0.000089  -0.000132   0.000025  -0.000000
   77  H  6  S    0.000669  -0.000622   0.000000   0.000135  -0.000075
   78  H  7  S   -0.000320  -0.000120   0.000051  -0.000124  -0.000000
   79  H  7  S    0.000596   0.000688   0.000133   0.000030  -0.000080
   80  BR 8  S    0.000003   0.000000  -0.000002  -0.000002   0.000000
   81  BR 8  S   -0.000000  -0.000000   0.000017   0.000021  -0.000002
   82  BR 8  X    0.000002  -0.000030  -0.000003   0.000002   0.000000
   83  BR 8  Y    0.000028   0.000002  -0.000009  -0.000010  -0.000002
   84  BR 8  Z   -0.000016  -0.000001   0.000005   0.000006  -0.000001
   85  BR 8  S   -0.000003  -0.000000   0.000078   0.000096  -0.000022
   86  BR 8  X   -0.000006   0.000111   0.000011  -0.000008  -0.000000
   87  BR 8  Y   -0.000104  -0.000006   0.000032   0.000039   0.000006
   88  BR 8  Z    0.000062   0.000004  -0.000017  -0.000022   0.000005
   89  BR 8  S   -0.000238  -0.000010  -0.000004   0.000001  -0.000119
   90  BR 8  X    0.000044  -0.000717  -0.000081   0.000060   0.000001
   91  BR 8  Y    0.000863   0.000050  -0.000238  -0.000291   0.000002
   92  BR 8  Z   -0.000771  -0.000041   0.000132   0.000163  -0.000027
   93  BR 8  S    0.003575   0.000173   0.000840   0.001023   0.000022
   94  BR 8  X    0.000063  -0.000955   0.000023  -0.000009  -0.000001
   95  BR 8  Y    0.001344   0.000072   0.000394   0.000482  -0.000058
   96  BR 8  Z   -0.001526  -0.000079  -0.000391  -0.000476  -0.000062
   97  BR 8 XX    0.000029   0.000001  -0.000005  -0.000006  -0.000004
   98  BR 8 YY    0.000026   0.000002   0.000009   0.000011  -0.000011
   99  BR 8 ZZ    0.000002   0.000000   0.000005   0.000007  -0.000002
  100  BR 8 XY    0.000001  -0.000017   0.000004  -0.000003  -0.000000
  101  BR 8 XZ   -0.000000   0.000004   0.000000  -0.000000  -0.000000
  102  BR 8 YZ    0.000006   0.000000  -0.000004  -0.000005  -0.000001
  103  BR 8 XX   -0.000020   0.000001  -0.000015  -0.000017  -0.000024
  104  BR 8 YY   -0.000013  -0.000001  -0.000077  -0.000095   0.000011
  105  BR 8 ZZ    0.000101   0.000005  -0.000060  -0.000072  -0.000034
  106  BR 8 XY   -0.000004   0.000085  -0.000017   0.000013   0.000000
  107  BR 8 XZ    0.000000  -0.000024  -0.000001   0.000001   0.000000
  108  BR 8 YZ   -0.000019  -0.000000   0.000017   0.000021   0.000006
  109  BR 8 XX    0.000162  -0.000000  -0.000339  -0.000411   0.000000
  110  BR 8 YY    0.000305   0.000023  -0.000198  -0.000237  -0.000111
  111  BR 8 ZZ   -0.000009   0.000004  -0.000204  -0.000249   0.000031
  112  BR 8 XY    0.000025  -0.000480   0.000009  -0.000005  -0.000001
  113  BR 8 XZ   -0.000016   0.000309   0.000027  -0.000023  -0.000001
  114  BR 8 YZ   -0.000262  -0.000017  -0.000007  -0.000008  -0.000021
  115  H  9  S   -0.000014   0.000094   0.000098   0.000009  -0.000187
  116  H  9  S    0.000315  -0.000118   0.002645   0.000457  -0.000192
  117  H 10  S   -0.000275   0.000203   0.000110   0.000022  -0.000235
  118  H 10  S   -0.000801  -0.000061   0.002607  -0.000104   0.000048
  119  H 11  S   -0.000163  -0.000009  -0.000210  -0.000255   0.000122
  120  H 11  S   -0.000725  -0.000036   0.000031   0.000041   0.002921
  121  H 12  S    0.000152   0.000007  -0.000180  -0.000219   0.000039
  122  H 12  S    0.000816   0.000043  -0.000110  -0.000136   0.002547
  123  H 13  S   -0.000005  -0.000094  -0.000011   0.000096  -0.000186
  124  H 13  S    0.000307   0.000142  -0.000072   0.002676  -0.000191
  125  H 14  S   -0.000256  -0.000229   0.000000   0.000114  -0.000235
  126  H 14  S   -0.000815  -0.000019  -0.000614   0.002541   0.000047

                     11         12         13         14         15
                   -8.9648    -6.7945    -6.7861    -6.7784    -2.8892
                     A          A          A          A          A   
    1  C  1  S   -0.000000  -0.000165   0.000192   0.000050   0.000570
    2  C  1  S   -0.000185  -0.001433   0.001170   0.000248  -0.001405
    3  C  1  X    0.000040   0.000242   0.000060  -0.000217   0.000534
    4  C  1  Y   -0.000059  -0.000318   0.000102   0.000085  -0.000071
    5  C  1  Z    0.000029   0.000132   0.000036   0.000123   0.000018
    6  C  1  S    0.000313   0.003036  -0.008153  -0.000367   0.003909
    7  C  1  X   -0.000181  -0.001319   0.003403   0.000723  -0.002735
    8  C  1  Y    0.000284   0.000394  -0.001334  -0.001249  -0.004064
    9  C  1  Z    0.000264   0.002416  -0.002093  -0.000920   0.003004
   10  C  1 XX   -0.000026  -0.000188   0.000135   0.000076   0.000022
   11  C  1 YY    0.000018  -0.000007   0.000127   0.000128   0.000079
   12  C  1 ZZ    0.000033   0.000201   0.000147  -0.000032   0.000172
   13  C  1 XY    0.000056   0.000347  -0.000079  -0.000040   0.000187
   14  C  1 XZ   -0.000040  -0.000310   0.000132  -0.000019  -0.000292
   15  C  1 YZ   -0.000061  -0.000481   0.000148  -0.000047  -0.000117
   16  C  2  S    0.000017   0.000085  -0.000032  -0.000037  -0.000183
   17  C  2  S    0.000119   0.000508  -0.000227  -0.000251  -0.000802
   18  C  2  X   -0.000006   0.000056  -0.000054   0.000038   0.000323
   19  C  2  Y    0.000006   0.000100  -0.000129  -0.000029   0.000410
   20  C  2  Z    0.000022   0.000133  -0.000059   0.000007  -0.000069
   21  C  2  S   -0.000633  -0.003292   0.002292   0.001445   0.005391
   22  C  2  X    0.000389   0.001335  -0.001032  -0.001295  -0.002549
   23  C  2  Y    0.000268   0.000986  -0.001392  -0.000760  -0.001702
   24  C  2  Z   -0.000201  -0.001556   0.000306   0.000129  -0.000833
   25  C  2 XX   -0.000002  -0.000018  -0.000020   0.000041  -0.000373
   26  C  2 YY   -0.000013  -0.000002   0.000084   0.000030  -0.000319
   27  C  2 ZZ    0.000020   0.000120  -0.000018  -0.000065  -0.000242
   28  C  2 XY   -0.000028  -0.000115   0.000123   0.000078  -0.000135
   29  C  2 XZ   -0.000008  -0.000024   0.000062   0.000004   0.000055
   30  C  2 YZ    0.000010   0.000061  -0.000087  -0.000055   0.000069
   31  C  3  S    0.000004   0.000017   0.000000  -0.000019   0.000094
   32  C  3  S    0.000004   0.000046   0.000002  -0.000055   0.000504
   33  C  3  X   -0.000000  -0.000001  -0.000114   0.000001   0.000002
   34  C  3  Y   -0.000025  -0.000101   0.000001   0.000079   0.000169
   35  C  3  Z   -0.000024  -0.000107  -0.000000   0.000004  -0.000015
   36  C  3  S    0.000275   0.001127  -0.000019  -0.000662  -0.004640
   37  C  3  X   -0.000001  -0.000002   0.000324   0.000000   0.000022
   38  C  3  Y   -0.000150  -0.000408   0.000005   0.000386   0.002192
   39  C  3  Z    0.000296   0.001559  -0.000001  -0.000328  -0.000044
   40  C  3 XX    0.000003   0.000035   0.000001  -0.000030   0.000127
   41  C  3 YY    0.000018   0.000021  -0.000000  -0.000040  -0.000148
   42  C  3 ZZ    0.000019   0.000091   0.000001  -0.000079   0.000148
   43  C  3 XY    0.000000  -0.000000   0.000001   0.000000  -0.000003
   44  C  3 XZ   -0.000000  -0.000000  -0.000038   0.000000   0.000001
   45  C  3 YZ   -0.000005  -0.000024   0.000000   0.000015   0.000062
   46  C  4  S    0.000017   0.000085   0.000032  -0.000036  -0.000184
   47  C  4  S    0.000119   0.000509   0.000225  -0.000248  -0.000806
   48  C  4  X    0.000006  -0.000056  -0.000053  -0.000038  -0.000317
   49  C  4  Y    0.000006   0.000103   0.000131  -0.000030   0.000416
   50  C  4  Z    0.000022   0.000134   0.000058   0.000008  -0.000070
   51  C  4  S   -0.000637  -0.003321  -0.002275   0.001432   0.005401
   52  C  4  X   -0.000385  -0.001319  -0.000989   0.001278   0.002538
   53  C  4  Y    0.000279   0.001028   0.001412  -0.000786  -0.001745
   54  C  4  Z   -0.000202  -0.001565  -0.000304   0.000129  -0.000824
   55  C  4 XX   -0.000001  -0.000015   0.000023   0.000039  -0.000370
   56  C  4 YY   -0.000015  -0.000007  -0.000090   0.000035  -0.000324
   57  C  4 ZZ    0.000020   0.000120   0.000018  -0.000064  -0.000244
   58  C  4 XY    0.000028   0.000116   0.000120  -0.000078   0.000136
   59  C  4 XZ    0.000008   0.000025   0.000064  -0.000004  -0.000054
   60  C  4 YZ    0.000010   0.000062   0.000086  -0.000056   0.000070
   61  C  5  S   -0.000000  -0.000166  -0.000192   0.000050   0.000571
   62  C  5  S   -0.000186  -0.001438  -0.001169   0.000251  -0.001406
   63  C  5  X   -0.000041  -0.000248   0.000059   0.000217  -0.000535
   64  C  5  Y   -0.000059  -0.000316  -0.000104   0.000081  -0.000060
   65  C  5  Z    0.000028   0.000128  -0.000036   0.000126   0.000013
   66  C  5  S    0.000322   0.003082   0.008148  -0.000377   0.003924
   67  C  5  X    0.000189   0.001334   0.003408  -0.000745   0.002628
   68  C  5  Y    0.000288   0.000400   0.001268  -0.001233  -0.004122
   69  C  5  Z    0.000273   0.002461   0.002120  -0.000938   0.003017
   70  C  5 XX   -0.000029  -0.000203  -0.000139   0.000077   0.000008
   71  C  5 YY    0.000020   0.000003  -0.000125   0.000127   0.000082
   72  C  5 ZZ    0.000033   0.000203  -0.000145  -0.000031   0.000174
   73  C  5 XY   -0.000055  -0.000339  -0.000078   0.000041  -0.000184
   74  C  5 XZ    0.000039   0.000298   0.000128   0.000018   0.000287
   75  C  5 YZ   -0.000062  -0.000489  -0.000151  -0.000047  -0.000122
   76  H  6  S    0.000041   0.000079  -0.000004  -0.000085  -0.000445
   77  H  6  S   -0.000003   0.000321  -0.000303  -0.001292   0.001482
   78  H  7  S    0.000042   0.000083   0.000005  -0.000085  -0.000448
   79  H  7  S    0.000003   0.000344   0.000304  -0.001295   0.001473
   80  BR 8  S   -0.124306   0.000763  -0.000000   0.000015   0.000342
   81  BR 8  S   -0.479774   0.003043  -0.000001   0.000022   0.001071
   82  BR 8  X    0.000019   0.003307  -0.408377  -0.001459  -0.000013
   83  BR 8  Y    0.001340   0.245156   0.003154  -0.326564  -0.000963
   84  BR 8  Z   -0.001862  -0.326412  -0.001769  -0.245339   0.001288
   85  BR 8  S    1.072266  -0.006821   0.000002  -0.000146  -0.004175
   86  BR 8  X   -0.000049  -0.008673   1.071231   0.003829   0.000037
   87  BR 8  Y   -0.003458  -0.642948  -0.008272   0.856705   0.002791
   88  BR 8  Z    0.004817   0.856085   0.004640   0.643646  -0.003752
   89  BR 8  S   -0.002416  -0.004638   0.000001   0.000630   0.000696
   90  BR 8  X   -0.000007  -0.000155   0.017050   0.000060  -0.000027
   91  BR 8  Y   -0.000580  -0.011701  -0.000133   0.013122  -0.001832
   92  BR 8  Z    0.000610   0.015000   0.000073   0.009307   0.002859
   93  BR 8  S    0.002208  -0.000345   0.000002  -0.001051  -0.015763
   94  BR 8  X    0.000005   0.000034  -0.004194  -0.000020  -0.000092
   95  BR 8  Y    0.000387   0.002572   0.000034  -0.003931  -0.007064
   96  BR 8  Z   -0.000381  -0.003152  -0.000019  -0.002276   0.008630
   97  BR 8 XX   -0.005250   0.001018   0.000023   0.000039   0.514593
   98  BR 8 YY   -0.005026  -0.000093  -0.000013   0.001388  -0.128607
   99  BR 8 ZZ   -0.005510  -0.000936  -0.000010  -0.001359  -0.386132
  100  BR 8 XY   -0.000002  -0.000017   0.000934   0.000014  -0.007968
  101  BR 8 XZ    0.000009   0.000023  -0.001288   0.000004   0.008518
  102  BR 8 YZ    0.000955   0.001585   0.000014  -0.000490   0.520132
  103  BR 8 XX   -0.007022  -0.000432   0.000014   0.000195   0.267142
  104  BR 8 YY   -0.006812  -0.001296  -0.000007   0.001282  -0.067009
  105  BR 8 ZZ   -0.007332  -0.001868  -0.000006  -0.000922  -0.200589
  106  BR 8 XY   -0.000003  -0.000012   0.000554   0.000012  -0.004138
  107  BR 8 XZ    0.000009   0.000015  -0.000815   0.000003   0.004420
  108  BR 8 YZ    0.001018   0.000941   0.000009  -0.000387   0.269741
  109  BR 8 XX   -0.003150  -0.002272   0.000014   0.000583   0.035643
  110  BR 8 YY   -0.003254  -0.002830  -0.000010   0.000826  -0.007033
  111  BR 8 ZZ   -0.003235  -0.003127  -0.000004   0.000475  -0.025262
  112  BR 8 XY   -0.000001  -0.000009   0.000635   0.000002  -0.000538
  113  BR 8 XZ    0.000001   0.000015  -0.000623   0.000001   0.000592
  114  BR 8 YZ    0.000091   0.001287   0.000008  -0.000084   0.037060
  115  H  9  S   -0.000026  -0.000093   0.000054   0.000029  -0.000085
  116  H  9  S   -0.000118  -0.000404   0.000123   0.000429   0.000614
  117  H 10  S    0.000085   0.000278  -0.000231  -0.000178  -0.000321
  118  H 10  S   -0.000088   0.000671   0.000322   0.000708   0.001221
  119  H 11  S    0.000019   0.000076   0.000001   0.000000   0.000097
  120  H 11  S    0.000138   0.000670   0.000000  -0.000225   0.000117
  121  H 12  S   -0.000035  -0.000160   0.000001   0.000050   0.000088
  122  H 12  S   -0.000061  -0.000470  -0.000001  -0.000021  -0.000058
  123  H 13  S   -0.000026  -0.000092  -0.000054   0.000030  -0.000083
  124  H 13  S   -0.000118  -0.000409  -0.000118   0.000428   0.000618
  125  H 14  S    0.000085   0.000279   0.000229  -0.000178  -0.000322
  126  H 14  S   -0.000089   0.000678  -0.000321   0.000718   0.001228

                     16         17         18         19         20
                   -2.8879    -2.8816    -2.8750    -2.8741    -1.1463
                     A          A          A          A          A   
    1  C  1  S    0.000107  -0.000097   0.000185  -0.000131   0.107014
    2  C  1  S   -0.002489  -0.000577   0.001020   0.001179  -0.207561
    3  C  1  X   -0.000072   0.000219   0.000037   0.000276   0.081007
    4  C  1  Y    0.000451  -0.000832   0.000760  -0.000246   0.018693
    5  C  1  Z   -0.000810  -0.000365   0.000590   0.000130  -0.051805
    6  C  1  S    0.014385   0.001941  -0.007848  -0.007022  -0.139680
    7  C  1  X   -0.003798  -0.000389   0.003257  -0.001485   0.012496
    8  C  1  Y   -0.002260   0.004789  -0.008932   0.001332   0.006178
    9  C  1  Z    0.006014   0.002228  -0.005630  -0.001965  -0.014565
   10  C  1 XX   -0.000787  -0.000191   0.000107   0.000278  -0.004241
   11  C  1 YY   -0.000305  -0.000512   0.000146   0.000005   0.002467
   12  C  1 ZZ   -0.000270   0.000284   0.000181  -0.000047   0.003142
   13  C  1 XY   -0.000136   0.000157   0.000009   0.000047  -0.003502
   14  C  1 XZ    0.000095   0.000038   0.000013  -0.000071   0.008956
   15  C  1 YZ   -0.000056   0.000189  -0.000115   0.000070   0.002133
   16  C  2  S   -0.000018  -0.000006  -0.000038  -0.000073   0.039849
   17  C  2  S    0.000066   0.000144  -0.000406  -0.000370  -0.071450
   18  C  2  X    0.000300   0.000313  -0.000319  -0.000082   0.027270
   19  C  2  Y    0.000453   0.000570  -0.000654  -0.000008   0.030729
   20  C  2  Z    0.000041  -0.000430   0.000078  -0.000073   0.005750
   21  C  2  S   -0.002074  -0.002629   0.007800   0.003208  -0.047640
   22  C  2  X   -0.000384  -0.000504  -0.001326   0.000104   0.006098
   23  C  2  Y    0.001080   0.000954  -0.001979  -0.001123   0.002441
   24  C  2  Z   -0.001608   0.002483  -0.000899   0.000207   0.001326
   25  C  2 XX   -0.000096  -0.000278   0.000099  -0.000103  -0.000845
   26  C  2 YY   -0.000351  -0.000223   0.000283   0.000073  -0.003140
   27  C  2 ZZ   -0.000081  -0.000023   0.000050  -0.000128   0.002030
   28  C  2 XY   -0.000144  -0.000234   0.000170  -0.000021  -0.003579
   29  C  2 XZ    0.000006   0.000106  -0.000018   0.000028  -0.000869
   30  C  2 YZ    0.000233   0.000139  -0.000112   0.000014  -0.001084
   31  C  3  S    0.000000   0.000153   0.000000   0.000059   0.024541
   32  C  3  S    0.000001   0.000728   0.000001   0.000299  -0.045163
   33  C  3  X    0.000072   0.000001  -0.000170  -0.000000   0.000234
   34  C  3  Y   -0.000001  -0.000127   0.000002  -0.000074   0.024959
   35  C  3  Z   -0.000001   0.000056   0.000001  -0.000065   0.000289
   36  C  3  S    0.000000  -0.002819  -0.000011  -0.001286  -0.020017
   37  C  3  X   -0.000729   0.000020  -0.000654   0.000018  -0.000011
   38  C  3  Y    0.000008   0.001964   0.000014   0.001217  -0.000459
   39  C  3  Z    0.000009  -0.001288  -0.000006   0.000262  -0.002064
   40  C  3 XX   -0.000000   0.000291   0.000001   0.000075  -0.000418
   41  C  3 YY   -0.000000  -0.000122  -0.000001  -0.000009  -0.002517
   42  C  3 ZZ    0.000000   0.000332   0.000000   0.000101   0.001644
   43  C  3 XY    0.000029  -0.000005   0.000065  -0.000002  -0.000023
   44  C  3 XZ    0.000081   0.000000   0.000028   0.000000  -0.000003
   45  C  3 YZ   -0.000000   0.000050  -0.000000   0.000039   0.000006
   46  C  4  S    0.000019  -0.000009   0.000037  -0.000074   0.039884
   47  C  4  S   -0.000064   0.000131   0.000403  -0.000372  -0.071508
   48  C  4  X    0.000291  -0.000306  -0.000308   0.000078  -0.026779
   49  C  4  Y   -0.000460   0.000580   0.000662  -0.000007   0.031203
   50  C  4  Z   -0.000041  -0.000431  -0.000079  -0.000075   0.005654
   51  C  4  S    0.002076  -0.002556  -0.007784   0.003201  -0.047628
   52  C  4  X   -0.000410   0.000546  -0.001272  -0.000101  -0.006082
   53  C  4  Y   -0.001077   0.000909   0.001992  -0.001112   0.002527
   54  C  4  Z    0.001596   0.002473   0.000899   0.000204   0.001291
   55  C  4 XX    0.000093  -0.000275  -0.000095  -0.000103  -0.000743
   56  C  4 YY    0.000358  -0.000235  -0.000290   0.000071  -0.003246
   57  C  4 ZZ    0.000081  -0.000028  -0.000050  -0.000130   0.002030
   58  C  4 XY   -0.000137   0.000233   0.000164   0.000025   0.003537
   59  C  4 XZ    0.000002  -0.000105  -0.000016  -0.000029   0.000843
   60  C  4 YZ   -0.000233   0.000142   0.000112   0.000016  -0.001090
   61  C  5  S   -0.000107  -0.000095  -0.000185  -0.000132   0.107049
   62  C  5  S    0.002486  -0.000575  -0.001025   0.001175  -0.207605
   63  C  5  X   -0.000088  -0.000233   0.000032  -0.000281  -0.080289
   64  C  5  Y   -0.000452  -0.000828  -0.000758  -0.000244   0.020199
   65  C  5  Z    0.000809  -0.000371  -0.000593   0.000125  -0.052420
   66  C  5  S   -0.014384   0.001875   0.007869  -0.007015  -0.139837
   67  C  5  X   -0.003705   0.000459   0.003362   0.001518  -0.012356
   68  C  5  Y    0.002331   0.004739   0.008839   0.001327   0.006317
   69  C  5  Z   -0.006034   0.002266   0.005684  -0.001935  -0.014715
   70  C  5 XX    0.000783  -0.000195  -0.000107   0.000275  -0.004000
   71  C  5 YY    0.000310  -0.000507  -0.000147   0.000007   0.002371
   72  C  5 ZZ    0.000274   0.000285  -0.000181  -0.000046   0.002998
   73  C  5 XY   -0.000146  -0.000164   0.000009  -0.000053   0.003641
   74  C  5 XZ    0.000103  -0.000039   0.000013   0.000076  -0.008975
   75  C  5 YZ    0.000052   0.000188   0.000114   0.000068   0.002308
   76  H  6  S   -0.000663   0.000476  -0.000806   0.000501  -0.037759
   77  H  6  S    0.000716   0.002032  -0.003896   0.000674   0.000357
   78  H  7  S    0.000659   0.000475   0.000801   0.000501  -0.037770
   79  H  7  S   -0.000710   0.002051   0.003894   0.000683   0.000314
   80  BR 8  S    0.000000   0.000004   0.000000  -0.000270   0.024155
   81  BR 8  S    0.000000  -0.000007   0.000000  -0.000933   0.089450
   82  BR 8  X   -0.001215  -0.000004   0.000002   0.000003  -0.000199
   83  BR 8  Y    0.000009  -0.000987   0.000000   0.000227  -0.014682
   84  BR 8  Z   -0.000004  -0.000748   0.000001  -0.000289   0.018033
   85  BR 8  S   -0.000001  -0.000104  -0.000002   0.003029  -0.261648
   86  BR 8  X    0.003516   0.000012  -0.000019  -0.000010   0.000653
   87  BR 8  Y   -0.000027   0.002821   0.000000  -0.000671   0.048114
   88  BR 8  Z    0.000013   0.002131  -0.000002   0.000861  -0.059095
   89  BR 8  S   -0.000003   0.000002  -0.000002  -0.000957   0.520370
   90  BR 8  X   -0.002659  -0.000005   0.000300   0.000010  -0.001303
   91  BR 8  Y    0.000022  -0.001437  -0.000004   0.000618  -0.095655
   92  BR 8  Z   -0.000009  -0.001019   0.000005  -0.000900   0.117517
   93  BR 8  S   -0.000007  -0.000717  -0.000027   0.007532  -0.057182
   94  BR 8  X   -0.005312  -0.000005   0.000157   0.000047   0.000060
   95  BR 8  Y    0.000045  -0.002168  -0.000013   0.003133   0.004921
   96  BR 8  Z   -0.000015  -0.001095   0.000012  -0.004185  -0.005555
   97  BR 8 XX   -0.010477  -0.001425   0.004573   0.541916  -0.005311
   98  BR 8 YY    0.006065  -0.621257  -0.007958  -0.395151   0.003216
   99  BR 8 ZZ    0.004412   0.622669   0.003385  -0.146739   0.011263
  100  BR 8 XY   -0.448793  -0.006460   0.597686  -0.006174   0.000166
  101  BR 8 XZ    0.596899  -0.001465   0.449474  -0.000338  -0.000260
  102  BR 8 YZ   -0.006556   0.206602  -0.000858  -0.495047  -0.021183
  103  BR 8 XX   -0.005435  -0.000728   0.002367   0.281011  -0.004832
  104  BR 8 YY    0.003145  -0.322131  -0.004121  -0.204403  -0.001828
  105  BR 8 ZZ    0.002290   0.322986   0.001753  -0.075885   0.000622
  106  BR 8 XY   -0.232818  -0.003350   0.309502  -0.003200   0.000055
  107  BR 8 XZ    0.309701  -0.000759   0.232809  -0.000172  -0.000083
  108  BR 8 YZ   -0.003402   0.107128  -0.000445  -0.256137  -0.006453
  109  BR 8 XX   -0.000728   0.000254   0.000300   0.033205   0.013871
  110  BR 8 YY    0.000426  -0.040828  -0.000514  -0.025696   0.000095
  111  BR 8 ZZ    0.000301   0.041023   0.000214  -0.009145  -0.013106
  112  BR 8 XY   -0.031154  -0.000426   0.038516  -0.000379  -0.000270
  113  BR 8 XZ    0.041150  -0.000097   0.028582  -0.000041   0.000418
  114  BR 8 YZ   -0.000453   0.013698  -0.000050  -0.032826   0.033199
  115  H  9  S   -0.000024   0.000330  -0.000279  -0.000129  -0.011958
  116  H  9  S    0.000240   0.001150  -0.000414  -0.000150   0.000424
  117  H 10  S    0.000066  -0.000382   0.000033  -0.000136  -0.015261
  118  H 10  S    0.001508  -0.000194  -0.000420  -0.000871   0.000301
  119  H 11  S    0.000001  -0.000077  -0.000000   0.000098  -0.009126
  120  H 11  S    0.000003  -0.000269  -0.000003   0.000011  -0.000052
  121  H 12  S   -0.000001   0.000169   0.000001  -0.000040  -0.006908
  122  H 12  S   -0.000003  -0.000140  -0.000001  -0.000236   0.002264
  123  H 13  S    0.000022   0.000329   0.000280  -0.000129  -0.011945
  124  H 13  S   -0.000240   0.001152   0.000419  -0.000139   0.000413
  125  H 14  S   -0.000062  -0.000389  -0.000039  -0.000139  -0.015317
  126  H 14  S   -0.001513  -0.000181   0.000438  -0.000863   0.000275

                     21         22         23         24         25
                   -0.9986    -0.9255    -0.8879    -0.7725    -0.7682
                     A          A          A          A          A   
    1  C  1  S   -0.036088   0.091670  -0.094231   0.092205  -0.011872
    2  C  1  S    0.068856  -0.182334   0.197138  -0.190353   0.029429
    3  C  1  X    0.010138  -0.092405  -0.071132  -0.100672  -0.130162
    4  C  1  Y    0.103736  -0.047919  -0.026466   0.106151  -0.127508
    5  C  1  Z   -0.022099  -0.019750  -0.057028   0.037419  -0.057245
    6  C  1  S    0.051084  -0.192565   0.179278  -0.253555   0.030371
    7  C  1  X   -0.004309  -0.003601  -0.015743  -0.020635  -0.037662
    8  C  1  Y    0.023518  -0.006413  -0.013252   0.057303  -0.051038
    9  C  1  Z    0.000316  -0.011052  -0.015357   0.009384  -0.023884
   10  C  1 XX    0.000888   0.010051   0.009438   0.008797   0.005835
   11  C  1 YY    0.003451  -0.006474  -0.007382   0.001256  -0.003075
   12  C  1 ZZ   -0.006285   0.001044  -0.007649  -0.002343  -0.002926
   13  C  1 XY   -0.003530  -0.003296  -0.001466   0.008603  -0.000709
   14  C  1 XZ    0.002644   0.002804  -0.003294   0.009147  -0.003718
   15  C  1 YZ    0.008373  -0.005527   0.004719  -0.001154  -0.004215
   16  C  2  S   -0.095282   0.118970   0.038704  -0.077352   0.071908
   17  C  2  S    0.180271  -0.229549  -0.074281   0.154011  -0.146151
   18  C  2  X   -0.051610  -0.008718   0.018578   0.032559  -0.099473
   19  C  2  Y    0.001076   0.049631  -0.081358   0.100585   0.102314
   20  C  2  Z   -0.017302   0.016430  -0.022318   0.027874  -0.021119
   21  C  2  S    0.137861  -0.198452  -0.069093   0.169194  -0.151637
   22  C  2  X   -0.006713  -0.004606   0.005307   0.011201  -0.035380
   23  C  2  Y   -0.000970   0.010382  -0.017546   0.027763   0.028384
   24  C  2  Z   -0.004330   0.002693  -0.007209   0.011214  -0.015920
   25  C  2 XX    0.003784   0.004642  -0.003797   0.001327   0.006421
   26  C  2 YY   -0.002408  -0.000871   0.004917  -0.010566   0.004928
   27  C  2 ZZ   -0.002319  -0.000820  -0.000446   0.004179  -0.005462
   28  C  2 XY   -0.000847  -0.003894   0.007841  -0.000742  -0.009142
   29  C  2 XZ    0.001425   0.000129   0.000909  -0.000599   0.001822
   30  C  2 YZ    0.000939  -0.001365   0.004302  -0.004971  -0.000098
   31  C  3  S   -0.102972  -0.000298   0.105215  -0.000695  -0.125757
   32  C  3  S    0.191393   0.000594  -0.204062   0.001367   0.249319
   33  C  3  X   -0.000531  -0.090898  -0.000114   0.130476   0.000176
   34  C  3  Y   -0.057287   0.000701  -0.001857  -0.000605   0.096081
   35  C  3  Z   -0.001510  -0.000142  -0.009023  -0.000100  -0.024500
   36  C  3  S    0.151725   0.000391  -0.178662   0.001532   0.270547
   37  C  3  X   -0.000092  -0.016549  -0.000042   0.036376   0.000051
   38  C  3  Y   -0.013128   0.000183  -0.001917  -0.000211   0.026012
   39  C  3  Z   -0.000830  -0.000022   0.001095  -0.000089  -0.010021
   40  C  3 XX    0.000440   0.000170   0.001042  -0.000215  -0.013676
   41  C  3 YY    0.003735  -0.000175   0.001877   0.000120  -0.002912
   42  C  3 ZZ   -0.003548  -0.000001  -0.000945   0.000046   0.006967
   43  C  3 XY    0.000032   0.011653   0.000026  -0.009192   0.000144
   44  C  3 XZ    0.000009  -0.000764   0.000007   0.001818  -0.000023
   45  C  3 YZ    0.000270   0.000028   0.000235  -0.000013   0.002404
   46  C  4  S   -0.095202  -0.119108   0.038328   0.078096   0.071159
   47  C  4  S    0.180126   0.229791  -0.073533  -0.155513  -0.144626
   48  C  4  X    0.051773  -0.009233  -0.020020   0.031952   0.100973
   49  C  4  Y    0.000365  -0.049019  -0.081209  -0.099841   0.101824
   50  C  4  Z   -0.017079  -0.016369  -0.022594  -0.028651  -0.020629
   51  C  4  S    0.137704   0.198773  -0.068484  -0.170798  -0.150085
   52  C  4  X    0.006708  -0.004658  -0.005627   0.011102   0.035742
   53  C  4  Y   -0.001022  -0.010231  -0.017447  -0.027581   0.028181
   54  C  4  Z   -0.004293  -0.002660  -0.007313  -0.011583  -0.015722
   55  C  4 XX    0.003827  -0.004721  -0.004033  -0.001267   0.006722
   56  C  4 YY   -0.002448   0.000953   0.005147   0.010606   0.004550
   57  C  4 ZZ   -0.002331   0.000814  -0.000434  -0.004210  -0.005429
   58  C  4 XY    0.000730  -0.003757  -0.007697  -0.000425   0.009131
   59  C  4 XZ   -0.001388   0.000125  -0.000854  -0.000539  -0.001777
   60  C  4 YZ    0.000971   0.001341   0.004312   0.005005  -0.000082
   61  C  5  S   -0.036039  -0.091259  -0.094721  -0.092240  -0.010836
   62  C  5  S    0.068728   0.181483   0.198115   0.190466   0.027291
   63  C  5  X   -0.008038  -0.091784   0.070559  -0.100886   0.129322
   64  C  5  Y    0.103803   0.049620  -0.027648  -0.105224  -0.128501
   65  C  5  Z   -0.022112   0.019466  -0.056735  -0.039580  -0.056512
   66  C  5  S    0.051158   0.191761   0.180448   0.253638   0.027500
   67  C  5  X    0.004816  -0.003532   0.015574  -0.021169   0.037035
   68  C  5  Y    0.023447   0.006552  -0.013512  -0.057283  -0.050987
   69  C  5  Z    0.000447   0.011112  -0.015280  -0.010157  -0.023874
   70  C  5 XX    0.001038  -0.010238   0.009362  -0.008619   0.005904
   71  C  5 YY    0.003318   0.006546  -0.007423  -0.001581  -0.003060
   72  C  5 ZZ   -0.006291  -0.000904  -0.007560   0.002492  -0.002937
   73  C  5 XY    0.003530  -0.003007   0.001051   0.008718   0.000442
   74  C  5 XZ   -0.002434   0.002813   0.003558   0.009105   0.003643
   75  C  5 YZ    0.008470   0.005484   0.004712   0.001003  -0.004297
   76  H  6  S    0.011214  -0.068084   0.073843  -0.145244   0.025473
   77  H  6  S    0.007313  -0.016374   0.017789  -0.051401   0.005037
   78  H  7  S    0.011284   0.067726   0.074469   0.145431   0.024039
   79  H  7  S    0.007369   0.016330   0.017924   0.051364   0.004428
   80  BR 8  S    0.022492  -0.000028   0.022099  -0.000013   0.004375
   81  BR 8  S    0.083577  -0.000103   0.082084  -0.000054   0.015841
   82  BR 8  X   -0.000022  -0.011156   0.000124  -0.023290   0.000269
   83  BR 8  Y   -0.000373   0.000106   0.009507   0.000161   0.001702
   84  BR 8  Z    0.004354  -0.000017  -0.017049  -0.000133  -0.019134
   85  BR 8  S   -0.243877   0.000304  -0.240358   0.000136  -0.048847
   86  BR 8  X    0.000073   0.036761  -0.000407   0.077145  -0.000891
   87  BR 8  Y    0.001336  -0.000349  -0.031293  -0.000533  -0.005649
   88  BR 8  Z   -0.014446   0.000055   0.056137   0.000440   0.063375
   89  BR 8  S    0.506323  -0.000640   0.511662  -0.000358   0.099508
   90  BR 8  X   -0.000198  -0.073944   0.000808  -0.163147   0.001910
   91  BR 8  Y   -0.006833   0.000701   0.062368   0.001143   0.013974
   92  BR 8  Z    0.034204  -0.000113  -0.112082  -0.000946  -0.136013
   93  BR 8  S   -0.105692   0.000208  -0.153048  -0.000056  -0.063083
   94  BR 8  X   -0.000056  -0.004380  -0.000075  -0.018173   0.000075
   95  BR 8  Y   -0.003913   0.000078  -0.006723   0.000038  -0.013558
   96  BR 8  Z    0.005840  -0.000016   0.000929  -0.000083  -0.010673
   97  BR 8 XX    0.002578   0.000177   0.008825   0.000253   0.006222
   98  BR 8 YY   -0.000488  -0.000148   0.004374  -0.000102   0.005599
   99  BR 8 ZZ    0.006608  -0.000039  -0.004655  -0.000159  -0.010477
  100  BR 8 XY   -0.000014   0.008217  -0.000063   0.008351  -0.000107
  101  BR 8 XZ   -0.000050  -0.008527   0.000124  -0.015591   0.000240
  102  BR 8 YZ   -0.003787   0.000099   0.009203   0.000184   0.006597
  103  BR 8 XX   -0.002516   0.000056  -0.000582   0.000075   0.001415
  104  BR 8 YY   -0.003160  -0.000044  -0.001788  -0.000020   0.001345
  105  BR 8 ZZ   -0.001236  -0.000009  -0.004522  -0.000038  -0.003344
  106  BR 8 XY   -0.000003   0.002506  -0.000018   0.002243  -0.000027
  107  BR 8 XZ   -0.000014  -0.002613   0.000035  -0.004311   0.000062
  108  BR 8 YZ   -0.001013   0.000030   0.002646   0.000049   0.001393
  109  BR 8 XX    0.005369  -0.000303  -0.002145  -0.000423  -0.006457
  110  BR 8 YY    0.008278   0.000216   0.005795   0.000185  -0.004797
  111  BR 8 ZZ   -0.003849   0.000039   0.019202   0.000296   0.024906
  112  BR 8 XY   -0.000010  -0.013119   0.000095  -0.014364   0.000186
  113  BR 8 XZ    0.000128   0.013718  -0.000165   0.026790  -0.000408
  114  BR 8 YZ    0.010511  -0.000162  -0.011246  -0.000316  -0.010077
  115  H  9  S    0.045746  -0.074470  -0.025294   0.076901  -0.067623
  116  H  9  S    0.002979  -0.013421  -0.006394   0.026025  -0.024439
  117  H 10  S    0.042679  -0.070571  -0.032114   0.077581  -0.082111
  118  H 10  S    0.003961  -0.011490  -0.007316   0.026044  -0.024994
  119  H 11  S    0.049552   0.000173  -0.064584   0.000740   0.122758
  120  H 11  S    0.003721   0.000026  -0.012442   0.000248   0.041016
  121  H 12  S    0.044134   0.000167  -0.070438   0.000592   0.117775
  122  H 12  S    0.003467   0.000014  -0.015552   0.000229   0.042014
  123  H 13  S    0.045622   0.074461  -0.024998  -0.077428  -0.066855
  124  H 13  S    0.002966   0.013432  -0.006328  -0.026211  -0.024194
[...]
    8             0.000586   0.000075   0.000014   0.000019   0.000004
    9             0.000001   0.000011   0.000006   0.000579   0.000001
   10             0.000001   0.000000  -0.000003   0.000463  -0.000004
   11             0.000000   0.000000  -0.000005  -0.000006   0.000504
   12            -0.000003  -0.000000   0.000001   0.000002   0.000563
   13             0.000004   0.000008   0.000588  -0.000003   0.000001
   14             0.000002  -0.000000   0.000453   0.000008  -0.000004

                     11         12         13         14         15

                  2.000000   2.000000   2.000000   2.000000   2.000000

    1            -0.000012  -0.000209  -0.000084  -0.000026  -0.000331
    2             0.000008   0.000032   0.000013   0.000006  -0.000008
    3            -0.000000  -0.000001  -0.000001   0.000002  -0.000005
    4             0.000008   0.000032   0.000013   0.000006  -0.000008
    5            -0.000012  -0.000207  -0.000085  -0.000025  -0.000331
    6             0.000001   0.000002  -0.000001   0.000006  -0.000007
    7             0.000001   0.000002  -0.000001   0.000006  -0.000007
    8             2.000005   2.000349   2.000145   2.000020   2.000696
    9             0.000000   0.000000   0.000000   0.000000  -0.000000
   10             0.000000  -0.000000   0.000001   0.000000  -0.000000
   11             0.000000   0.000000   0.000000   0.000000  -0.000000
   12             0.000001  -0.000000   0.000000   0.000004   0.000000
   13             0.000000   0.000000   0.000000   0.000000  -0.000000
   14             0.000000  -0.000000   0.000001   0.000000  -0.000000

                     16         17         18         19         20

                  2.000000   2.000000   2.000000   2.000000   2.000000

    1            -0.000316  -0.000150  -0.000092  -0.000052   0.558941
    2             0.000017   0.000027   0.000015   0.000004   0.148313
    3            -0.000002  -0.000013   0.000000  -0.000004   0.095991
    4             0.000017   0.000027   0.000015   0.000004   0.148202
    5            -0.000316  -0.000149  -0.000092  -0.000052   0.558748
    6            -0.000004   0.000014   0.000013   0.000002   0.015289
    7            -0.000004   0.000013   0.000013   0.000002   0.015249
    8             2.000611   2.000234   2.000127   2.000098   0.442656
    9            -0.000000  -0.000000  -0.000000  -0.000000   0.003443
   10            -0.000001   0.000002   0.000001  -0.000000   0.003023
   11            -0.000000  -0.000000  -0.000000  -0.000000   0.001821
   12             0.000000  -0.000005   0.000000  -0.000002   0.001863
   13            -0.000000  -0.000000  -0.000000  -0.000000   0.003437
   14            -0.000001   0.000002   0.000001  -0.000000   0.003025

                     21         22         23         24         25

                  2.000000   2.000000   2.000000   2.000000   2.000000

    1             0.083088   0.326270   0.322826   0.185099   0.430811
    2             0.248747   0.511273   0.111364   0.296281   0.235948
    3             0.295145   0.061996   0.429253   0.513396   0.093065
    4             0.249140   0.510875   0.111499   0.297125   0.235299
    5             0.083180   0.326672   0.322517   0.185353   0.429865
    6            -0.000013   0.031010   0.038582   0.002949   0.183739
    7            -0.000015   0.031032   0.038451   0.003149   0.183067
    8             0.957609   0.009969   0.515218   0.083623   0.041837
    9             0.015888   0.048033   0.004677   0.061716   0.038195
   10             0.011033   0.047432   0.007141   0.046340   0.045273
   11             0.015376   0.000000   0.043325   0.103005   0.000001
   12             0.013836   0.000000   0.043265   0.113191   0.000001
   13             0.015914   0.047987   0.004702   0.062093   0.037904
   14             0.011072   0.047451   0.007180   0.046680   0.044996

                     26         27         28         29         30

                  2.000000   2.000000   2.000000   2.000000   2.000000

    1             0.516647   0.175942   0.317730   0.104325   0.387322
    2             0.128140   0.383851   0.236412   0.485797   0.368849
    3             0.143744   0.252947   0.169135   0.059858   0.043467
    4             0.127771   0.384080   0.237569   0.486434   0.367343
    5             0.517427   0.175792   0.317620   0.104558   0.387168
    6             0.182602   0.000029   0.051126   0.001230   0.138289
    7             0.183043   0.000035   0.050728   0.001250   0.139044
    8             0.047317   0.200366   0.321456   0.165543   0.001288
    9             0.023864   0.053471   0.062546   0.194851   0.028493
   10             0.024167   0.105749   0.043105   0.100387   0.055456
   11             0.046439   0.033392   0.027099   0.000000   0.000000
   12             0.010991   0.074930   0.059382   0.000000   0.000000
   13             0.023779   0.053444   0.063076   0.194841   0.028469
   14             0.024069   0.105973   0.043014   0.100924   0.054813

                     31         32         33         34         35

                  2.000000   2.000000   2.000000   2.000000   2.000000

    1             0.406400   0.157421   0.019259   0.090415   0.022695
    2             0.099355   0.201921   0.516817   0.095200   0.205913
    3             0.322091   0.726790   0.567790   0.051323   0.435711
    4             0.099933   0.200552   0.517954   0.097046   0.203387
    5             0.406254   0.157356   0.019383   0.091105   0.022316
    6             0.023013   0.016842   0.003441   0.020515   0.000008
    7             0.022877   0.016804   0.003494   0.020419  -0.000003
    8             0.351361   0.115573   0.056075   1.402439   0.249671
    9             0.003151   0.002026   0.000481   0.063580   0.160471
   10             0.049514   0.005169   0.147649   0.001341   0.067812
   11             0.006111   0.377190   0.000000   0.000001   0.126747
   12             0.157026   0.015132   0.000000   0.000003   0.279188
   13             0.003252   0.001960   0.000512   0.065109   0.158307
   14             0.049662   0.005264   0.147144   0.001504   0.067778

                     36

                  2.000000

    1             0.029935
    2             0.030489
    3             0.061206
    4             0.030421
    5             0.029869
    6             0.012062
    7             0.012039
    8             1.770845
    9             0.000914
   10             0.000483
   11             0.000317
   12             0.020041
   13             0.000894
   14             0.000485

               ----- POPULATIONS IN EACH AO -----
                             MULLIKEN      LOWDIN
              1  C  1  S      1.99255     1.97750
              2  C  1  S      0.73445     0.39012
              3  C  1  X      0.75760     0.67695
              4  C  1  Y      0.76566     0.68085
              5  C  1  Z      0.43766     0.38562
              6  C  1  S      0.65979     0.31463
              7  C  1  X      0.18365     0.34927
              8  C  1  Y      0.28797     0.38060
              9  C  1  Z      0.29387     0.37539
             10  C  1 XX      0.00276     0.17432
             11  C  1 YY      0.00583     0.17405
             12  C  1 ZZ     -0.01497     0.12775
             13  C  1 XY      0.01162     0.02275
             14  C  1 XZ      0.00703     0.01272
             15  C  1 YZ      0.00793     0.01483
             16  C  2  S      1.99211     1.97746
             17  C  2  S      0.68301     0.36073
             18  C  2  X      0.73971     0.66351
             19  C  2  Y      0.64951     0.58603
             20  C  2  Z      0.73189     0.65651
             21  C  2  S      0.61656     0.31157
             22  C  2  X      0.29020     0.40474
             23  C  2  Y      0.19871     0.35324
             24  C  2  Z      0.37568     0.46529
             25  C  2 XX      0.00530     0.15586
             26  C  2 YY     -0.00502     0.14636
             27  C  2 ZZ      0.00766     0.15477
             28  C  2 XY      0.00717     0.01428
             29  C  2 XZ      0.00818     0.01516
             30  C  2 YZ      0.00299     0.00577
             31  C  3  S      1.99207     1.97754
             32  C  3  S      0.67719     0.35838
             33  C  3  X      0.64603     0.58335
             34  C  3  Y      0.72706     0.65284
             35  C  3  Z      0.73694     0.66380
             36  C  3  S      0.63298     0.31483
             37  C  3  X      0.21918     0.35944
             38  C  3  Y      0.32107     0.41985
             39  C  3  Z      0.34404     0.45806
             40  C  3 XX     -0.00774     0.13977
             41  C  3 YY      0.00716     0.15659
             42  C  3 ZZ      0.00813     0.15808
             43  C  3 XY      0.00825     0.01567
             44  C  3 XZ      0.00463     0.00897
             45  C  3 YZ      0.00476     0.00834
             46  C  4  S      1.99211     1.97746
             47  C  4  S      0.68303     0.36075
             48  C  4  X      0.74004     0.66383
             49  C  4  Y      0.64927     0.58581
             50  C  4  Z      0.73184     0.65645
             51  C  4  S      0.61653     0.31158
             52  C  4  X      0.29140     0.40504
             53  C  4  Y      0.19789     0.35310
             54  C  4  Z      0.37523     0.46508
             55  C  4 XX      0.00537     0.15596
             56  C  4 YY     -0.00488     0.14658
             57  C  4 ZZ      0.00769     0.15483
             58  C  4 XY      0.00700     0.01397
             59  C  4 XZ      0.00812     0.01501
             60  C  4 YZ      0.00299     0.00579
             61  C  5  S      1.99255     1.97751
             62  C  5  S      0.73449     0.39018
             63  C  5  X      0.75824     0.67750
             64  C  5  Y      0.76515     0.68050
             65  C  5  Z      0.43710     0.38506
             66  C  5  S      0.66009     0.31471
             67  C  5  X      0.18473     0.34992
             68  C  5  Y      0.28715     0.37997
             69  C  5  Z      0.29380     0.37528
             70  C  5 XX      0.00288     0.17449
             71  C  5 YY      0.00559     0.17381
             72  C  5 ZZ     -0.01493     0.12779
             73  C  5 XY      0.01169     0.02286
             74  C  5 XZ      0.00694     0.01253
             75  C  5 YZ      0.00800     0.01497
             76  H  6  S      0.51261     0.46773
             77  H  6  S      0.20833     0.30429
             78  H  7  S      0.51245     0.46757
             79  H  7  S      0.20844     0.30440
             80  BR 8  S      1.99822     1.99773
             81  BR 8  S      1.98666     1.91076
             82  BR 8  X      1.99976     1.99831
             83  BR 8  Y      1.99977     1.99848
             84  BR 8  Z      1.99969     1.99769
             85  BR 8  S      1.93270     0.77724
             86  BR 8  X      1.99542     1.96802
             87  BR 8  Y      1.99587     1.97205
             88  BR 8  Z      1.99357     1.95431
             89  BR 8  S      1.66114     0.58190
             90  BR 8  X      1.30094     1.18149
             91  BR 8  Y      1.40034     1.27095
             92  BR 8  Z      1.03011     0.90418
             93  BR 8  S      0.31761     0.31954
             94  BR 8  X      0.36807     0.52791
             95  BR 8  Y      0.43766     0.58929
             96  BR 8  Z      0.20058     0.37697
             97  BR 8 XX      0.95016     1.24679
             98  BR 8 YY      0.95026     1.24670
             99  BR 8 ZZ      0.94956     1.24628
            100  BR 8 XY      1.39042     1.34235
            101  BR 8 XZ      1.38920     1.34118
            102  BR 8 YZ      1.38956     1.34152
            103  BR 8 XX      0.39956     0.58199
            104  BR 8 YY      0.39899     0.58128
            105  BR 8 ZZ      0.40037     0.58381
            106  BR 8 XY      0.58287     0.61529
            107  BR 8 XZ      0.58359     0.61636
            108  BR 8 YZ      0.58336     0.61617
            109  BR 8 XX      0.00403     0.28759
            110  BR 8 YY      0.00015     0.28331
            111  BR 8 ZZ      0.03872     0.29340
            112  BR 8 XY      0.03004     0.04610
            113  BR 8 XZ      0.03780     0.05513
            114  BR 8 YZ      0.03908     0.05551
            115  H  9  S      0.51003     0.47256
            116  H  9  S      0.25637     0.32310
            117  H 10  S      0.51512     0.47490
            118  H 10  S      0.24642     0.32225
            119  H 11  S      0.52024     0.48203
            120  H 11  S      0.26108     0.32745
            121  H 12  S      0.52263     0.48880
            122  H 12  S      0.26678     0.33220
            123  H 13  S      0.51001     0.47251
            124  H 13  S      0.25627     0.32306
            125  H 14  S      0.51520     0.47496
            126  H 14  S      0.24630     0.32215

          ----- MULLIKEN ATOMIC OVERLAP POPULATIONS -----
          (OFF-DIAGONAL ELEMENTS NEED TO BE MULTIPLIED BY 2)

             1           2           3           4           5

    1    5.1976320
    2    0.3595444   5.0915557
    3   -0.0572568   0.3475612   5.0690800
    4   -0.0743891  -0.0493297   0.3475137   5.0914234
    5    0.3117642  -0.0743321  -0.0571770   0.3595284   5.1978424
    6    0.3626404  -0.0236083   0.0037534   0.0026935  -0.0287655
    7   -0.0287575   0.0026959   0.0037484  -0.0235824   0.3625654
    8    0.1201406  -0.0353713   0.0082634  -0.0352618   0.1199581
    9   -0.0338788   0.3620684  -0.0309904   0.0008648  -0.0012149
   10   -0.0299848   0.3789626  -0.0248136   0.0039638   0.0045422
   11    0.0045128  -0.0278348   0.3842118  -0.0278315   0.0045082
   12   -0.0018993  -0.0330668   0.3836206  -0.0330053  -0.0019049
   13   -0.0012042   0.0008585  -0.0309318   0.3620768  -0.0338580
   14    0.0045447   0.0039643  -0.0248311   0.3789640  -0.0299844

             6           7           8           9          10

    6    0.4262109
    7   -0.0010130   0.4261832
    8   -0.0185020  -0.0184866  34.5923922
    9   -0.0020485  -0.0001346   0.0044380   0.4887331
   10   -0.0000414  -0.0000597  -0.0060615  -0.0212650   0.4597573
   11   -0.0000708  -0.0000707  -0.0002273  -0.0049227   0.0009257
   12   -0.0001192  -0.0001192   0.0061696   0.0033626  -0.0041971
   13   -0.0001343  -0.0020382   0.0044244   0.0015083  -0.0001214
   14   -0.0000599  -0.0000428  -0.0060561  -0.0001215  -0.0000744

            11          12          13          14

   11    0.4752052
   12   -0.0231016   0.4945096
   13   -0.0049138   0.0033551   0.4885084
   14    0.0009274  -0.0041949  -0.0212536   0.4597116

          TOTAL MULLIKEN AND LOWDIN ATOMIC POPULATIONS
       ATOM         MULL.POP.    CHARGE          LOW.POP.     CHARGE
    1 C             6.133409   -0.133409         6.057351   -0.057351
    2 C             6.303668   -0.303668         6.271263   -0.271263
    3 C             6.321752   -0.321752         6.275501   -0.275501
    4 C             6.303628   -0.303628         6.271250   -0.271250
    5 C             6.133472   -0.133472         6.057092   -0.057092
    6 H             0.720935    0.279065         0.772022    0.227978
    7 H             0.720888    0.279112         0.771964    0.228036
    8 BR           34.735820    0.264180        34.707585    0.292415
    9 H             0.766399    0.233601         0.795661    0.204339
   10 H             0.761533    0.238467         0.797150    0.202850
   11 H             0.781318    0.218682         0.809480    0.190520
   12 H             0.789409    0.210591         0.820998    0.179002
   13 H             0.766276    0.233724         0.795575    0.204425
   14 H             0.761493    0.238507         0.797108    0.202892

          -------------------------------
          BOND ORDER AND VALENCE ANALYSIS     BOND ORDER THRESHOLD=0.050
          -------------------------------

                   BOND                       BOND                       BOND
  ATOM PAIR DIST  ORDER      ATOM PAIR DIST  ORDER      ATOM PAIR DIST  ORDER
    1   2  1.501  1.023        1   5  1.461  1.015        1   6  1.087  0.883
    1   8  2.125  0.714        2   3  1.547  0.976        2   9  1.104  0.880
    2  10  1.093  0.908        3   4  1.548  0.976        3  11  1.092  0.926
    3  12  1.094  0.923        4   5  1.501  1.023        4  13  1.104  0.880
    4  14  1.093  0.908        5   7  1.088  0.883        5   8  2.126  0.714

                       TOTAL       BONDED        FREE
      ATOM            VALENCE     VALENCE     VALENCE
    1 C                 3.635       3.635      -0.000
    2 C                 3.774       3.774       0.000
    3 C                 3.799       3.799       0.000
    4 C                 3.774       3.774       0.000
    5 C                 3.634       3.634      -0.000
    6 H                 0.887       0.887       0.000
    7 H                 0.887       0.887       0.000
    8 BR                1.534       1.534       0.000
    9 H                 0.904       0.904       0.000
   10 H                 0.908       0.908       0.000
   11 H                 0.918       0.918       0.000
   12 H                 0.918       0.918       0.000
   13 H                 0.904       0.904       0.000
   14 H                 0.908       0.908       0.000

          ---------------------
          ELECTROSTATIC MOMENTS
          ---------------------

 POINT   1           X           Y           Z (BOHR)    CHARGE
                 0.005457    0.339254    0.466525        1.00 (A.U.)
         DX          DY          DZ         /D/  (DEBYE)
     0.018973    1.599978   -3.662716    3.996972
 ...... END OF PROPERTY EVALUATION ......
 STEP CPU TIME =     0.06 TOTAL CPU TIME =       3314.2 (     55.2 MIN)
 TOTAL WALL CLOCK TIME=       3317.8 SECONDS, CPU UTILIZATION IS    99.89%
  $VIB   
          IVIB=   0 IATOM=   0 ICOORD=   0 E=    -2768.6543624146
 -8.889437825E-06-1.209832032E-04-5.700619681E-05-2.463188937E-05 1.193811384E-04
  4.008951429E-05 3.364828353E-05-1.127659074E-04 1.311213272E-04-1.928829418E-04
  1.656071380E-04-1.165516463E-04 1.774966625E-04 5.967123647E-05 5.160908110E-05
 -7.363937589E-05 1.205312398E-04 2.707033606E-05-8.693488659E-05-1.100133008E-04
 -4.095705323E-05 6.180105070E-06-1.026156446E-05 1.494021578E-05-6.318947388E-05
 -3.275145705E-05 8.098637446E-05 2.153375127E-05-4.276024949E-05-6.155398801E-05
 -3.586328645E-06-4.013247701E-05 1.120177906E-05 3.949144977E-05 1.082976958E-04
 -7.587277772E-05 4.070278273E-05-3.267203214E-05 1.105934006E-04 1.347012992E-04
 -7.114825677E-05-1.156703664E-04
  1.897294465E-02 1.599977889E+00-3.662716484E+00
 ......END OF GEOMETRY SEARCH......
 STEP CPU TIME =     0.00 TOTAL CPU TIME =       3314.2 (     55.2 MIN)
 TOTAL WALL CLOCK TIME=       3317.8 SECONDS, CPU UTILIZATION IS    99.89%
              1155078  WORDS OF DYNAMIC MEMORY USED
 EXECUTION OF GAMESS TERMINATED NORMALLY Sat Nov 13 22:56:45 2021
 DDI: 263640 bytes (0.3 MB / 0 MWords) used by master data server.

 ----------------------------------------
 CPU timing information for all processes
 ========================================
 0: 3311.37 + 3.208 = 3314.246
 ----------------------------------------
 ddikick.x: exited gracefully.
----- accounting info -----
Files used on the master node chemcompute-node-0.novalocal were:
-rw-r--r--. 1 chemcomp chemcomp     1211 Nov 13 22:01 /scratch/306206/342108.F05
-rw-rw-r--. 1 chemcomp chemcomp 57344000 Nov 13 22:56 /scratch/306206/342108.F10
-rw-rw-r--. 1 chemcomp chemcomp  6989360 Nov 13 22:54 /scratch/306206/342108.F22
Sat Nov 13 22:56:48 UTC 2021
0.132u 0.097s 55:21.38 0.0%	0+0k 8+216io 0pf+0w
Finishing Up...
Looking for IR data...
Looking for Raman data...
vibramans not found
Looking for thermodynamics data...
Looking for UV-Vis data...
306206
